  5.3385723e-01   1.2558568e-03
 -2.5581462e+00   5.4755462e-03
 -4.6484214e-01   1.6184438e-03
 -4.2734414e-01   3.8923784e-03
 -1.1901159e-01   4.3210173e-03
  3.1058186e-01   5.2029979e-03
 -7.8366742e-02   7.0705526e-03
 -1.0411218e-01   3.0807288e-02
 -9.7380918e-01   3.5956483e-03
 -4.3356043e-01   1.3654712e-02
 -5.2032661e-02   8.3676064e-03
 -1.1838132e-01   4.2512589e-03
 -1.4079937e-01   3.0424919e-03
 -1.3591151e-01   8.8520218e-03
  1.3817842e-01   2.9977581e-03
  2.2252191e-02   1.7423265e-02
 -2.8878465e-01   5.2089728e-03
  7.9457152e-01   2.6994699e-03
 -7.8965586e-01   1.0369420e-02
 -1.5305176e+00   2.2124031e-03
 -5.6954864e-02   2.4807543e-02
  4.3697964e-02   9.0973824e-03
  1.1192785e-01   1.6098255e-02
 -1.1164536e-01   1.3113246e-02
  1.7578313e-01   1.0087194e-02
 -6.2261701e-02   9.5195379e-03
 -1.3055818e-01   3.4739800e-02
  8.5980995e-03   2.5372885e-02
  5.7415115e-03   1.1088748e-02
 -1.5528084e+00   3.9560734e-03
  1.6996983e-01   1.1173887e-03
  3.8256770e-01   9.3429275e-03
 -4.9584511e-01   7.8521278e-03
 -6.1921921e-02   2.3615381e-03
  1.7815400e-02   4.5286268e-03
  1.2240914e-01   2.2730439e-03
  7.0317551e-02   2.9849725e-02
  5.8117498e-02   1.0948149e-02
  3.1767316e-02   2.0857317e-02
  5.0601911e-02   2.3339063e-02
  5.4746330e-02   1.8391959e-02
  1.9352756e+00   7.1969903e-03
 -1.8519443e-02   2.2024663e-02
  6.0175374e-02   1.5890408e-02
  2.9630503e-01   1.7508959e-02
  6.9336452e-02   1.0341455e-02
  1.2806532e-01   6.1887736e-03
 -4.2882389e-01   6.2634349e-03
  9.3411254e-03   3.1634432e-03
 -2.2372288e-01   7.8360317e-03
  8.0606860e-01   3.3339257e-03
  4.0267792e-02   1.3080641e-02
  1.3141453e-01   3.6724012e-02
 -9.5056742e-02   3.0607523e-02
  1.4959797e-01   3.4105171e-02
 -2.2384156e-02   3.8037007e-03
 -1.3891065e-01   4.1704807e-02
  1.1285916e-02   1.9757297e-02
 -1.2127751e+00   3.8266953e-03
  9.2606038e-02   2.5028238e-02
  9.2918098e-01   3.5539211e-05
  4.0596554e-01   1.9516273e-04
  8.3365685e-01   4.4171611e-04
  1.4942531e-01   6.8021705e-04
  6.2712026e-01   4.2349088e-04
  1.9621785e-01   5.6178537e-03
 -8.2354166e-02   2.0874955e-03
  7.2673833e-01   1.0481993e-02
  1.1918143e-01   1.0403986e-03
 -6.2865549e-01   2.3939023e-03
 -1.5767635e-01   2.2123153e-03
 -9.4962806e-01   2.6311830e-04
 -1.9966824e-01   1.3282914e-03
  6.9181269e-01   1.7234401e-03
 -6.6912919e-01   4.3170649e-04
 -2.1181965e+00   3.3105849e-03
 -6.4400184e-01   2.5270545e-04
  1.3512714e+00   1.0877330e-03
  1.1408239e-02   3.0732418e-03
 -1.3176116e+00   2.0305956e-04
  7.7745122e-01   2.1192234e-03
 -8.4735495e-01   1.7443364e-03
  1.4077267e-01   1.6086160e-03
 -8.7704235e-01   1.3390350e-03
 -9.8713398e-01   1.2197001e-03
 -8.5641605e-01   1.6938793e-02
 -2.6104867e-01   2.4737208e-03
  2.1108048e-02   1.2941631e-02
  3.0698641e-03   2.5325748e-03
  3.1217700e-01   1.7389773e-03
 -6.1401129e-01   4.3306560e-03
  1.5844809e-01   1.1485307e-02
 -3.0913681e-01   1.1240789e-02
  1.1227570e-02   7.3514711e-03
 -3.1171804e-02   9.4945580e-03
 -2.2091572e-01   1.0331500e-02
 -1.4166059e-02   2.6509266e-02
 -9.4777942e-03   2.5324134e-02
 -1.1792658e-01   1.8674694e-02
 -1.3926668e-01   1.5450552e-02
 -1.3402361e-01   1.0939437e-02
  3.3474502e-01   6.8683489e-03
  1.4168394e-01   1.5244585e-02
  2.0157564e-03   3.0342437e-02
 -1.1135867e-02   1.2905663e-02
 -3.2139432e-02   1.5873207e-02
  5.5438399e-01   2.1408109e-03
  1.8146256e-01   2.1602342e-02
  9.1066193e-03   6.1583249e-03
  4.4854037e-02   1.4106025e-02
 -2.8016880e-02   2.6610941e-02
 -7.8815222e-02   2.4726339e-02
 -2.7872724e-02   1.9807955e-02
  1.0454921e-01   3.9528951e-02
 -3.6279868e-02   1.4247408e-02
 -1.3505469e-02   1.2157002e-02
  1.2405153e-02   2.0306667e-02
  3.6022048e-02   2.4977311e-02
 -9.2594035e-02   2.1895725e-02
 -3.4961425e-02   2.6539413e-02
  2.0118654e-01   1.0366708e-03
  9.4780612e-01   2.6971002e-03
  1.2526393e+00   2.6223364e-03
 -2.7021569e-01   2.3921730e-03
  6.7705226e-01   2.0986651e-03
  3.7155461e-01   8.0287382e-03
  2.1162875e-01   9.8357331e-03
  4.7032781e-02   1.6475435e-02
 -9.5126456e-01   3.7146637e-03
  7.6673053e-02   5.3765485e-03
  2.0359284e-01   1.2179323e-02
 -2.8360721e-01   3.1509514e-03
  8.9904573e-03   1.4555794e-02
 -8.8996440e-02   4.0185372e-03
  1.8489146e-01   2.0155527e-03
  2.2195583e-02   1.9229872e-02
  7.1966851e-01   4.3065433e-04
 -3.4942654e-01   4.1660541e-03
 -4.0297909e-03   4.9194498e-03
  2.6222762e-01   2.9480471e-03
  1.6916811e-01   9.6208192e-03
  4.8121828e-01   1.0646109e-02
  5.4564763e-02   7.8354403e-03
  3.0872723e-02   1.3142872e-02
 -3.7040628e-02   6.4806654e-03
 -4.0549558e-02   2.8837416e-02
 -1.2412301e-01   1.5937278e-02
 -2.6711334e-02   9.1841612e-03
 -5.9671145e-02   2.9200979e-03
 -1.5383795e-01   1.7588638e-02
  3.1542414e-01   8.3635449e-03
  4.2579513e-02   4.8032585e-03
  4.0550418e-02   8.4123500e-03
 -3.3893727e-02   1.4263455e-02
  1.4214434e-01   1.4528904e-02
 -4.1522089e-02   4.8981402e-02
 -5.0701693e-02   2.4711316e-02
 -9.6154362e-02   2.0162901e-02
 -3.4065405e-03   1.8060379e-02
 -3.5224315e-02   1.2710865e-02
 -3.1586209e-01   1.4992133e-03
 -7.3802851e-02   1.4703002e-02
 -1.1503935e-02   2.0095386e-02
 -1.0433017e-01   1.2705953e-02
  8.6628888e-03   1.1368394e-02
 -9.9008959e-03   1.5794517e-02
  1.0853408e-02   2.6882177e-02
  1.9912514e-01   2.4976509e-02
 -6.1908346e-02   1.7494384e-02
  2.2607332e-02   8.5195284e-03
 -1.0758123e-01   2.2110552e-02
 -8.1444897e-02   3.1770427e-02
 -1.0458092e-01   1.0286069e-02
 -2.1348321e-03   1.3933836e-02
  3.9459884e-02   3.6987197e-02
 -8.0343664e-02   2.0314828e-02
 -1.3092002e-01   1.0176483e-02
  2.3819717e-02   2.0873686e-02
  5.0510615e-02   3.2048739e-02
 -8.1680976e-03   2.7457902e-02
 -3.6745068e-01   1.5052836e-02
 -2.0040648e-02   1.4915547e-02
  9.7081410e-03   7.7742110e-03
  7.7388525e-02   6.0781026e-03
  1.2336005e-01   2.6196891e-03
  9.8899409e-02   3.5064664e-02
 -7.1047403e-02   3.3581808e-02
 -2.1452477e-02   1.0672180e-03
 -7.7422084e-03   1.5384946e-02
  1.2470458e-02   2.6035139e-02
  4.6155114e-02   3.9093796e-02
  3.8268104e-01   3.1110661e-03
  6.8458080e-02   2.4552129e-02
  7.1200512e-02   9.7152088e-03
 -9.6165434e-02   1.2846095e-02
  1.0563411e-02   9.2088738e-03
  5.5026852e-02   1.2508399e-02
 -1.4484243e-01   3.2741406e-03
 -6.6440418e-02   2.5763078e-02
  2.9184183e-01   1.3409238e-02
  7.6078087e-02   2.4091214e-02
  1.2741698e-01   1.6066922e-02
  2.7775072e-02   1.6178632e-02
 -1.6175229e-02   2.0670371e-02
  1.4918463e-01   4.1760325e-02
 -8.1496295e-03   4.3219075e-02
  6.2629610e-02   2.0570293e-02
 -1.9001309e-05   5.4690182e-02
 -5.3470787e-02   3.3310737e-02
 -5.8961142e-02   4.2585097e-03
  2.7568474e-02   6.3320843e-04
 -2.8007725e-01   5.0380300e-03
  9.3922949e-01   3.4766789e-03
 -1.6621409e-01   2.4532462e-03
  9.0601540e-01   6.5264158e-04
 -2.4768633e-01   1.0810423e-02
  1.1391360e+00   6.4754449e-03
  2.0473102e-02   1.8835833e-02
 -7.2655618e-02   5.5551068e-03
  1.1644329e-01   9.6125351e-03
  1.5650368e-01   1.2616801e-02
  6.3892972e-01   1.3658230e-03
  4.0362856e-01   9.5869973e-03
  1.3226897e-02   9.7685214e-03
 -2.0456336e+00   1.8035652e-03
  5.6995790e-02   6.4556058e-03
  1.3554746e+00   9.2124497e-04
 -9.4349885e-01   3.9890390e-03
  2.2415830e-01   1.1566287e-02
  2.1364589e+00   3.6766864e-03
 -3.9637607e-02   1.4076410e-02
  3.2880940e-02   7.2100088e-03
 -5.4538533e-02   2.4272880e-02
  4.9569830e-02   1.5297079e-02
  2.6608014e-02   2.1708472e-02
 -6.8968602e-02   1.8373273e-02
  8.3093756e-01   9.5572453e-03
  2.7219686e-01   6.5793279e-03
  1.4864028e-02   1.3782939e-02
 -2.9368713e-01   1.0293559e-02
  1.4198388e+00   2.0159886e-03
 -1.1565447e-01   8.5183391e-03
  1.0116085e+00   7.7914945e-03
  3.7822433e-02   2.0297293e-02
  3.3733648e-01   1.3620393e-02
 -2.6029441e-01   5.9402070e-04
  6.2470883e-02   5.1382203e-02
  1.4282116e-03   5.2892379e-03
  1.3335605e-01   8.2430849e-03
  5.7028338e-02   4.5258049e-02
 -3.7384289e-03   1.8049052e-02
 -5.5333115e-02   2.0279830e-02
 -1.1456178e-01   1.1692465e-02
 -1.3287829e-02   3.6095724e-02
  2.9509524e-02   1.4891237e-02
 -9.1506727e-03   1.6865158e-02
  5.3375032e-02   8.3708409e-03
 -3.3361491e-02   3.7799124e-03
 -1.2706014e-02   2.1392884e-02
  4.3949306e-01   1.0804166e-02
 -4.1622620e-02   1.7252129e-02
  5.9203999e-03   1.6437313e-02
  5.6339245e-02   2.4620001e-03
  1.1270745e-02   2.4478229e-02
  6.0801640e-02   1.1956559e-02
 -6.7438036e-02   1.3161934e-02
 -2.3200352e-02   7.1660057e-03
 -1.5002066e-01   9.7244596e-03
 -6.4159766e-02   2.5109133e-02
  1.3012070e-02   9.9068517e-03
  1.0556927e-01   6.3533005e-03
  4.9308877e-02   1.0497810e-02
  2.5860772e-01   1.0168437e-02
 -1.3922478e-01   1.5994275e-02
  7.7856041e-02   1.5899863e-02
  1.3912460e-02   3.0944102e-02
  7.1756773e-02   2.2452105e-02
 -2.3233885e-01   2.1288300e-02
  4.3288253e-02   1.4867389e-02
 -5.9374738e-02   9.8282704e-03
  3.0934939e-02   2.0950034e-02
 -7.6265726e-03   9.0299100e-03
 -1.1829537e-02   9.2727654e-03
  4.8175585e-02   1.8863784e-02
 -1.2954289e-01   3.1536471e-02
 -1.0485480e-01   2.5779756e-02
 -6.0366951e-02   1.2132484e-02
 -1.1051312e-02   1.4798583e-02
  9.6681997e-02   3.0656051e-02
 -5.9967678e-02   8.8894414e-03
  1.5466725e-02   2.9357050e-02
 -1.1449906e-01   1.4634991e-02
  1.9654743e-01   7.1227737e-03
 -6.9123141e-02   5.6505860e-03
 -2.5520265e-02   1.6985156e-02
 -7.4967153e-02   2.7985524e-02
 -2.4258982e-02   4.4707473e-02
  5.5972356e-02   1.6658302e-02
 -1.7508858e+00   8.0489903e-04
  6.6279404e-02   1.5110278e-02
 -1.2032562e+00   5.5026729e-04
  2.6665092e-01   2.3354751e-03
 -6.0825920e-01   1.0404002e-03
  6.5173102e-03   1.7774223e-03
  4.5045182e-01   2.0574271e-03
  4.5026532e-01   1.3983848e-02
  1.3588957e+00   1.1301255e-02
  4.6557543e-01   2.0470843e-02
 -1.6021451e-02   2.8164980e-03
  7.0534402e-01   2.6376925e-03
 -1.1210267e-01   5.1206783e-03
 -4.7401376e-02   1.8193598e-03
  8.7289371e-02   4.6547679e-03
 -3.0779195e-01   3.2999048e-03
  8.6970970e-02   1.1154972e-03
  6.3854885e-01   1.1769127e-02
 -4.2827159e-01   3.2322456e-03
 -5.9068698e-01   2.9543063e-03
 -6.5411180e-02   6.9340318e-03
  1.1589333e-02   3.2519631e-03
  7.7789582e-02   1.6645841e-02
 -2.5668842e-01   6.8507250e-03
  2.0137130e-01   5.5889860e-03
 -1.5707199e-02   3.8115145e-03
 -1.0094155e-02   3.0435673e-03
  1.9706628e-01   3.5890587e-02
  5.8495891e-03   4.5562522e-03
  1.1530080e-01   2.1034561e-02
 -3.0360848e-01   1.6494587e-02
 -6.0053813e-01   5.7573840e-03
  5.9016556e-02   5.3055286e-03
  2.3243535e-02   1.5791731e-02
 -3.5153136e-02   2.3215605e-02
 -1.5782189e-02   2.0618977e-02
  4.7749139e-02   1.8777324e-02
  1.8444330e-01   8.7114554e-03
  2.4433923e-03   3.2099944e-02
 -2.4053084e-02   1.9262191e-02
  1.8847752e-03   9.8342020e-03
  1.7113511e-02   1.4970320e-02
  3.4404138e-01   2.2356675e-03
 -2.1301521e-01   3.9059997e-02
  7.2793894e-02   1.6731611e-02
  1.3862574e-01   1.8474772e-03
  2.2381709e-03   6.9622039e-03
  3.6979549e-02   2.3616279e-02
  1.0359829e-01   2.5129519e-02
  4.2158553e-01   2.7049005e-03
 -2.7298721e-02   1.4177282e-02
  4.1254953e-02   1.7576449e-02
  2.5243478e-02   1.1063208e-02
 -2.9850239e-02   3.8137615e-02
  2.1130510e-02   3.2097679e-02
 -1.9787919e-02   8.8912863e-03
  6.8976805e-02   3.0246556e-02
  2.9542901e-02   1.4829962e-02
 -1.6387148e-01   3.7443366e-02
  1.0715176e-01   1.5555615e-02
  5.0818197e-02   1.2494031e-02
 -8.3481431e-02   3.4340955e-02
 -6.3047713e-01   1.5327139e-03
 -4.7082737e-02   4.8639309e-03
 -1.7718749e-01   3.7510709e-03
  6.4968973e-01   5.9570060e-03
  6.7581363e-02   4.6953168e-03
 -9.8223209e-02   1.4870644e-02
 -1.2139440e-01   1.2607535e-02
  7.9303451e-02   1.6840635e-02
 -1.4070441e-01   4.5278510e-03
 -2.3129448e-01   1.6102303e-02
 -2.1881148e-02   2.2883557e-02
 -3.8703155e-02   8.9613907e-03
  1.4580092e-01   1.0783486e-02
 -3.7371297e-05   1.1464632e-02
 -1.9638233e-02   5.2401605e-03
  3.6927450e-02   6.5534697e-03
  9.7662322e-03   5.7771709e-03
  1.2449852e-01   3.3940796e-03
 -2.6066380e-02   1.1981557e-02
 -1.2070076e-01   6.7313919e-03
 -1.2493371e-01   2.9723128e-02
 -1.3567607e-02   1.0536016e-02
  2.5610361e-02   1.6928434e-02
  9.3894109e-02   1.2534280e-02
  8.1358813e-02   2.2335965e-02
  1.1237940e+00   2.4197742e-03
 -3.8959086e-02   8.6992178e-03
 -8.7139323e-02   2.2883702e-02
 -3.3700947e-02   3.4320429e-02
  2.0871665e-01   2.7544385e-02
 -7.6881394e-02   7.7159437e-03
 -7.9086378e-02   1.8155832e-02
  6.5028656e-01   6.1816834e-03
 -1.4496690e-01   2.1662191e-02
  4.9978485e-03   2.4041563e-02
  1.6907631e-01   2.8337358e-02
 -4.3285072e-02   2.7240137e-02
 -5.3309046e-02   1.4176721e-02
  6.6312172e-02   1.9678133e-02
  4.2214703e-02   1.7142352e-02
  1.1691619e-01   4.3192194e-03
  1.1007606e-01   2.1461045e-02
 -1.2873465e-01   3.0626832e-02
  1.5501973e-03   2.0072540e-02
 -2.9832350e-02   5.8814613e-03
  8.1606656e-02   3.6877926e-02
 -1.3567866e-03   1.4203388e-02
  3.1120479e-02   2.9559489e-02
  4.9593430e-02   1.2232845e-02
  5.9313376e-02   4.4321860e-03
 -7.7427529e-02   2.3736157e-02
  1.8407311e-04   2.0852601e-02
 -6.1356585e-02   3.3749457e-02
  5.3231262e-02   2.8268607e-02
  5.6809030e-02   2.0663824e-02
 -4.8060864e-02   1.5496809e-02
  3.0015239e-02   1.4621543e-02
  2.0369984e-02   2.4610702e-02
  5.9643462e-02   1.6217049e-02
 -4.5139894e-02   2.1525940e-02
 -6.9360517e-02   1.5422302e-02
  6.6237231e-03   4.1250177e-03
 -4.8804708e-02   9.6799945e-03
 -1.8731426e-01   1.2235886e-02
 -1.2486478e-01   1.4132839e-02
  7.3842183e-03   6.0165185e-03
 -1.1675881e-02   2.4740214e-02
 -1.6950624e-02   3.0380879e-02
  3.4953371e-02   9.9987173e-03
 -1.7027938e-01   8.3682025e-03
  6.0749758e-02   3.7047572e-02
 -5.7878949e-02   2.2684924e-02
 -3.5604205e-02   1.6142137e-02
  2.9173999e-03   1.2787188e-02
 -2.0579773e-01   4.0945346e-03
 -6.2532082e-02   2.4156425e-02
  2.3651147e-02   1.4896537e-02
  4.6765547e-02   2.0622212e-02
 -1.0329474e-01   3.3657692e-02
  2.9040588e-02   9.4337398e-03
 -1.2227512e-03   1.7030027e-02
  1.4059387e-02   2.2173949e-02
 -2.9774215e-02   7.0668915e-03
 -6.7429446e-02   2.7795730e-02
 -9.1089830e-02   4.3977845e-02
 -7.9102144e-02   2.4171965e-02
 -4.6172515e-02   3.1117477e-02
  2.2666723e-02   4.0382348e-02
 -2.8037988e-02   9.4305435e-03
  3.2861281e-02   1.8025707e-02
  7.0268318e-02   2.6431121e-03
 -8.1403241e-02   1.4831692e-02
  7.8430049e-02   1.6749511e-03
 -4.3227024e-02   1.6675292e-02
 -2.3974722e-02   7.6702284e-03
  4.7081453e-03   2.8487736e-02
  1.2615524e-01   1.7266789e-02
  5.8791805e-02   7.1351645e-03
 -1.2693312e-02   3.5951830e-02
 -3.9664395e-02   1.4913912e-02
 -1.3440032e-02   4.4164404e-02
 -6.9972519e-03   1.6739950e-02
  1.5956344e-02   1.6351867e-02
 -1.0462979e-02   1.3913238e-02
 -9.0979502e-02   1.1215672e-02
 -5.2920827e-03   1.4283507e-02
  2.7848682e-01   2.3325158e-03
  9.7931782e-03   6.9083832e-03
  6.8504083e-01   3.7451200e-03
  5.0499205e-02   6.4010359e-03
 -3.3787992e-02   2.8732818e-02
 -2.3179090e-02   2.4923181e-02
  1.3955525e-01   6.5981974e-03
  5.8680639e-02   1.6017402e-02
  3.4432702e-02   3.0363500e-02
 -3.1715307e-02   1.4579173e-02
  1.2286151e-02   8.3375294e-03
 -6.6839434e-02   2.7257999e-02
 -1.0250169e-02   6.2807626e-03
  1.0954640e-03   5.2252202e-03
 -1.2887837e-01   1.1914453e-02
  1.3131060e-02   3.1498339e-02
  1.5730551e-01   1.6588725e-02
  1.2383894e-02   8.3303768e-03
  4.7368441e-02   7.3281210e-03
 -1.5718654e-01   4.7779283e-03
  1.6785031e-02   6.7876442e-03
 -4.9132962e-02   4.9213260e-02
  1.1526033e-02   2.6412707e-02
 -1.3675438e-02   1.6356269e-02
  4.9087103e-03   1.8150434e-02
  1.1067713e-02   9.4966441e-03
 -2.1437451e-01   1.9181558e-03
  3.4831811e-02   3.8283750e-02
  1.8857194e-02   1.1327616e-02
 -1.7449480e-02   5.6141179e-02
 -1.7527528e-02   2.0420406e-02
 -4.3530972e-03   2.1222031e-02
  3.8702828e-03   1.8834263e-02
 -4.3694999e-02   5.1961490e-03
  7.9006165e-02   3.5736434e-02
 -1.0382161e-01   2.1689387e-02
 -3.0574745e-02   3.3264417e-02
 -2.3635497e-02   1.7022699e-02
 -8.0414094e-02   2.0414215e-02
  7.1326792e-02   4.1530523e-02
 -1.6281150e-02   1.4526475e-02
 -5.3256180e-02   1.3789441e-02
  2.3156416e-02   9.3321493e-03
  2.2460442e-02   2.8119812e-02
  9.0270215e-01   6.9193199e-04
 -2.6520260e-03   1.8632694e-03
 -1.5985753e-01   2.4006269e-03
  1.4082667e-01   1.4452458e-03
  3.8375375e-01   1.7674635e-03
 -3.6290973e-02   1.5447568e-02
 -1.1884272e-02   5.5145971e-03
  1.4287457e-02   2.3576394e-02
  2.1356465e-02   3.3841704e-03
 -4.0101251e-01   1.0078719e-02
 -5.8247823e-01   6.1311605e-03
 -8.6024743e-01   2.2742695e-03
  7.7738822e-01   4.9124090e-03
 -5.3613591e-01   1.6191567e-03
 -1.4916252e-01   3.6752459e-03
 -2.9321846e-01   1.2962655e-02
 -8.0080611e-01   7.7061448e-04
  7.8018850e-01   8.1711524e-04
  7.1581185e-02   6.5054907e-03
 -4.1066676e-01   1.7650335e-03
 -6.0852613e-02   9.8354314e-03
 -4.4311762e-01   1.3829164e-02
  2.7578390e-01   3.2193880e-03
 -3.0801913e-02   7.4002915e-03
 -6.6662836e-01   4.8481720e-03
  6.5283351e-02   3.6335714e-02
  3.2582622e-02   3.1764805e-03
 -1.1046794e-02   1.3584808e-02
  1.3275892e-03   1.8341320e-02
 -9.0345889e-03   1.3657286e-02
  5.4336630e-02   9.9362712e-03
  9.1167912e-02   2.7642433e-02
  1.3752235e-01   2.2031434e-02
 -2.8669417e-01   1.0630527e-03
 -5.1915254e-03   1.3200038e-02
 -7.5584285e-02   2.6172297e-02
 -5.0053254e-02   2.5557665e-02
 -2.3230147e-02   2.6525090e-02
 -1.6163483e-02   1.5085045e-02
  2.2816863e-02   1.5851866e-02
 -3.3459466e-02   2.5981078e-02
  8.9946352e-02   1.9657932e-02
 -1.0451971e-01   2.6693139e-02
  2.1549389e-02   1.2175192e-02
 -4.8498042e-02   3.5714637e-02
 -6.7635020e-03   2.7326203e-03
 -7.4820966e-02   7.7521410e-03
  1.2688292e-02   6.8389885e-03
 -1.0951921e-01   3.5755169e-02
  7.2558999e-01   2.3681850e-03
  1.3388932e-01   1.0860104e-02
  6.9649547e-02   1.7343896e-02
  7.3646083e-02   9.9986047e-03
 -6.1403536e-03   2.3210710e-02
 -1.8756684e-02   2.6631495e-02
 -7.1919495e-01   1.8990689e-03
 -2.7026677e-01   8.4646242e-03
 -5.0524130e-02   1.6430864e-02
  1.2187546e-02   1.9689409e-02
 -8.5885160e-02   2.7344139e-02
 -2.2415963e-01   2.1353574e-04
 -7.4979848e-01   1.3862923e-03
 -4.9316236e-01   1.9318378e-03
 -2.7258384e-01   3.1232412e-04
 -5.3666621e-03   1.6816916e-03
 -7.6652378e-01   2.0578360e-02
 -2.2473910e+00   5.8427318e-03
  1.4443214e-01   8.4452303e-03
  3.2724994e-03   3.2782296e-03
 -4.0204790e-01   4.8200828e-03
 -2.8883526e-01   8.9221625e-03
 -3.1416348e-01   1.6865102e-03
  1.0560231e+00   3.9091036e-03
  2.5492966e-01   4.0364647e-03
 -3.8424648e-02   3.1830450e-03
 -7.9472607e-01   1.2132271e-02
  1.2583899e+00   1.3818947e-03
 -2.5521703e+00   1.7921933e-03
  3.8628900e-01   3.8383771e-03
  1.2513096e+00   9.0774847e-04
 -2.2399119e-01   1.5309042e-02
 -5.5205500e-01   2.6060815e-03
  4.6745801e-01   1.0735263e-03
  2.1998240e-01   4.7184066e-03
  8.4562793e-02   1.9296866e-03
 -1.1570506e-01   1.2157016e-02
  1.5493101e-01   7.0445105e-03
 -1.0924572e-03   3.2292001e-02
  1.6986734e-01   1.8041404e-02
  6.0940760e-01   3.3835126e-03
 -4.2504553e-02   2.5527978e-02
  3.0847073e-02   1.7139170e-02
  3.7857380e-02   3.2394461e-03
  1.2597010e-02   2.4908237e-02
  3.2668725e-02   2.6551431e-02
  5.3460013e-02   1.7026307e-02
 -5.3644508e-02   3.6456984e-02
  2.4213361e-02   3.6089640e-02
  3.4153771e-02   1.6371353e-02
  1.1126912e-01   2.3776568e-02
  7.0843466e-02   1.2394603e-02
  1.2834113e-02   1.4436198e-02
 -5.8419831e-02   2.2851260e-02
  8.0379725e-02   2.6062986e-02
  2.2052329e-02   1.7281502e-02
  6.9789082e-02   1.4069076e-02
 -1.6957770e-01   6.7924182e-03
  7.2526082e-02   4.1949749e-02
 -6.1079569e-02   1.1075647e-02
 -3.9487276e-02   1.5314721e-02
 -2.7157385e-02   1.1609121e-02
  4.5481227e-02   2.9286202e-02
 -1.9212281e-03   1.6084678e-02
  2.1077240e-02   7.2423620e-03
 -5.2298140e-02   1.8941125e-02
 -3.7502810e-01   2.2343770e-02
  5.3015288e-02   2.8296838e-02
  1.3602376e-01   2.1653835e-02
  6.8965070e-02   3.1961486e-02
  4.5173015e-02   4.6309452e-03
 -1.5190232e+00   4.0425008e-04
  4.3520024e-01   1.3351308e-03
 -1.2354865e-02   1.7827301e-03
 -1.3222946e+00   1.9787850e-03
 -2.0943034e-01   4.0572206e-03
 -5.9707808e-01   6.5824040e-03
 -6.8476111e-02   3.2757530e-03
 -3.2987529e-01   2.2902738e-02
 -6.2767133e-02   3.1470186e-03
 -2.1380557e-01   9.4036842e-03
 -2.1435320e-01   9.1480119e-03
 -2.0920774e-01   6.8242196e-03
  1.5240282e-01   2.0248296e-03
 -1.3429996e+00   2.3157380e-03
  6.5421790e-01   6.1094579e-03
 -4.5609200e-01   1.1864924e-02
  3.1668806e-01   5.1647574e-03
  1.0487462e+00   7.2101261e-03
 -1.2314761e+00   7.2919875e-03
 -1.5823524e-01   1.1664252e-02
 -1.0231746e-02   2.6519202e-02
  9.6985787e-01   8.2088150e-03
 -2.3734689e-02   1.6357981e-02
 -9.6239960e-01   5.6970189e-03
 -7.3136650e-02   6.7702602e-03
 -2.2419315e-02   3.3614222e-02
  5.3026881e-02   1.3097930e-02
 -8.3278529e-02   1.7383246e-02
 -1.5433004e-01   9.0880403e-03
  7.9464279e-02   1.1096196e-02
  1.2414075e+00   4.5243261e-04
  1.4851493e-02   5.0115036e-03
  6.9835156e-01   2.2771491e-03
 -2.6949790e-01   6.5417765e-03
 -7.6312058e-02   1.6416070e-03
  1.0767166e-01   1.3973147e-02
 -3.2604367e-01   9.7688911e-03
  2.7278481e-02   7.0805922e-03
  3.0796062e-03   8.0751199e-03
 -3.9472777e-01   5.6908820e-03
  2.9402990e-02   9.2839133e-03
  5.3178680e-01   2.5818679e-03
  2.2041336e-01   7.4876393e-03
  1.4983019e-01   6.7830635e-03
  7.5166774e-01   2.9304554e-03
 -2.4622136e-01   3.0923029e-02
  2.2097661e-01   7.0487885e-03
  3.4047651e-01   2.6704976e-03
  2.0495634e-01   9.9726757e-03
 -9.3571776e-01   4.9605006e-03
 -1.3584151e-02   1.7878601e-02
  6.2494814e-01   4.4990969e-03
 -1.9562121e-01   4.8626517e-03
  4.5023959e-02   1.3982706e-02
  7.4083316e-01   1.0017403e-02
 -6.1322726e-02   2.1492463e-02
  1.1231587e-01   2.4351224e-03
 -2.6648974e-01   1.6382067e-02
 -1.3266981e-01   6.7386054e-03
  9.9120587e-03   2.2407115e-02
  1.4645818e+00   6.7201741e-05
  5.6035250e-01   1.2990556e-03
  9.7247267e-01   7.6438545e-04
 -1.1502582e+00   1.6134930e-03
 -8.6331591e-02   2.1612842e-03
  5.2848762e-01   1.8881495e-03
  1.6766796e-01   4.7346423e-03
  1.7739919e+00   7.1853129e-03
 -1.3542958e+00   2.4247691e-03
  9.8167253e-01   5.1102974e-03
 -2.4643492e-02   6.3480409e-03
 -1.4507222e-02   8.9774677e-04
  1.9944204e+00   2.7665971e-03
 -1.8062936e-01   4.9488037e-03
 -2.8973746e+00   1.6346484e-03
  9.5033246e-01   1.1339391e-02
 -5.3409994e-01   1.5233752e-03
  1.3744397e+00   1.9797250e-03
  9.4514750e-02   5.4688342e-03
 -1.3756752e+00   4.5636983e-04
  2.9519320e-01   1.2830627e-02
  6.4698827e-01   7.6273642e-03
  2.9585180e-01   9.1473479e-03
  1.3548139e+00   1.2139386e-02
 -2.2508645e-01   2.2150250e-03
 -1.2810968e-01   9.6503040e-03
 -6.6156143e-01   1.5082611e-02
  3.8938764e-01   4.0949777e-02
  1.2210710e-01   2.4083236e-02
 -7.9468203e-01   9.5559563e-03
 -1.0434216e+00   6.4531236e-04
  7.2199589e-01   6.2250538e-04
 -1.6205317e-01   4.3678461e-04
  1.1080501e-01   4.8489607e-04
  3.5148448e-01   5.3160096e-04
  2.0250294e-01   8.8854088e-03
  1.0748852e+00   5.5155898e-03
  7.9227734e-01   1.1879774e-03
  2.0686729e-01   3.9649187e-03
  7.7044970e-01   3.3412545e-03
  1.5966269e-01   3.3561399e-03
  2.1773848e-01   1.8953056e-03
  2.0640283e+00   2.0884261e-03
  9.6455991e-01   3.0315358e-03
 -1.0549074e+00   7.1077771e-04
 -2.3530140e+00   3.2887489e-03
  1.7374804e+00   1.2226797e-03
 -1.1584197e+00   2.5348854e-03
  2.2538325e-01   6.5794465e-04
 -1.1851861e+00   2.5579470e-04
  5.9712067e-02   2.9521862e-03
  5.9750464e-02   4.1690902e-03
 -7.1382797e-01   1.9078532e-03
 -4.4187251e-01   4.7528381e-03
 -3.8371968e-01   4.0946370e-03
  2.4516031e-01   1.3915980e-02
 -5.9956795e-01   1.0837414e-03
 -5.8544658e-02   6.5804836e-03
  1.8210593e-01   7.4255029e-03
  1.8109621e-01   6.6967453e-03
 -4.1834894e-01   2.3921637e-03
  4.4386622e-01   2.1235193e-03
 -7.6044034e-03   2.7179178e-03
 -1.6162930e-01   9.6069247e-04
  8.9145079e-02   4.2793551e-03
 -8.9781624e-01   1.0221672e-02
  4.2046213e-01   8.3256355e-03
  4.8694285e-03   2.2368189e-02
  4.6202842e-02   4.8763314e-03
  4.4563138e-01   7.9206023e-03
  2.5519913e-01   1.6725430e-02
 -1.8073935e-02   1.3623127e-03
  5.1695779e-02   1.2014177e-02
  6.4394805e-03   6.5373280e-03
  4.9844023e-02   3.9045818e-03
  9.5079094e-02   1.0475906e-02
  7.2626412e-02   2.7081217e-03
 -2.3913915e-01   3.7065889e-03
  3.6742514e-01   8.1036957e-03
  1.1797322e-01   2.5047183e-03
  4.7616657e-02   5.4885293e-03
 -3.0996710e-01   3.1510724e-03
  1.2996908e-01   1.3784147e-02
  7.6678520e-01   8.6935097e-03
  4.2572815e-02   9.3237702e-03
  2.5632691e-01   8.6020688e-03
 -1.0466701e-02   1.1442145e-02
 -5.1272945e-03   1.7759198e-02
 -9.8249070e-02   1.9055232e-02
 -1.2481969e-01   1.0210166e-02
  3.0824345e-01   8.5873733e-04
 -8.1561095e-01   3.7360396e-03
  5.8655816e-01   3.9065722e-03
  1.2184982e+00   4.2622763e-04
 -5.6001827e-02   3.1190605e-03
  2.9347437e-03   1.5951646e-02
 -7.3696423e-01   1.3867790e-02
  2.2772311e-01   4.3723136e-03
  1.2189776e-01   7.3863924e-03
 -5.5114919e-01   1.7753681e-02
 -1.4511596e-01   1.6318372e-02
 -2.2792231e-01   1.9473402e-03
  9.7243607e-02   9.3124835e-03
 -1.0084820e+00   5.1488015e-03
  1.3512151e-03   4.8120390e-03
 -8.7270953e-02   1.4070773e-02
 -2.6678413e-01   8.0174627e-04
 -2.2046986e-01   3.1018013e-03
 -9.2293203e-01   1.1220110e-02
 -2.0004685e+00   2.7568993e-04
  7.3608927e-02   8.9952378e-03
 -6.3555062e-02   2.4909310e-02
 -7.6193209e-03   8.6067384e-03
  2.5422281e-01   9.0422696e-03
 -1.3771133e-01   8.9338627e-03
  1.2566757e-01   4.0059020e-03
  9.7557321e-02   1.1408137e-02
 -6.7511082e-02   2.9075760e-02
 -1.4989318e-01   1.8527772e-02
  5.6159791e-02   2.3229115e-02
  7.8213340e-01   9.1046729e-04
 -5.4542130e-01   6.9846259e-04
 -8.5557424e-02   2.9802480e-04
  3.4846738e-01   3.1694150e-04
 -4.0953192e-01   1.0003590e-03
  7.4797100e-01   2.7109494e-03
  1.2955914e+00   2.1257503e-03
 -5.0455695e-03   8.8909827e-03
  1.2221527e+00   2.5200243e-03
  3.8913331e+00   6.0282750e-03
 -6.0910684e-01   9.7391807e-04
  6.3785911e-01   2.9878959e-03
 -1.8389663e-02   4.1149775e-03
  5.1821381e-01   1.5126131e-03
  1.4226355e-01   4.5034415e-04
  1.1581300e-01   6.0605784e-03
  6.6989315e-01   1.1286439e-03
  1.5578601e-01   8.3719031e-04
  1.1234360e+00   3.7189357e-03
 -3.1333837e-01   9.8247605e-04
  9.5999530e-03   3.3199058e-03
  1.4834296e+00   1.4241500e-03
 -3.2466957e-01   5.0245291e-03
 -7.5921036e-02   5.6193247e-03
 -9.3771714e-01   1.6211900e-03
  1.1095037e-01   1.4978721e-02
 -2.3820168e-01   8.1997979e-03
  9.3483017e-04   2.3447521e-02
  7.1901232e-03   3.1747054e-03
 -5.7073987e-01   9.7256722e-03
  9.5795788e-02   1.0918480e-02
  6.2905299e-03   1.2158448e-02
  1.1043999e-01   1.7818650e-02
  1.1534609e-01   2.1035276e-02
 -1.4534739e-01   5.0735767e-03
  1.7606611e-03   6.3093626e-03
  1.5987644e-01   7.6625920e-03
 -1.5942711e-02   2.4012327e-02
  2.6320419e-03   1.6040076e-02
 -4.5167312e-02   3.4540039e-02
  1.8645730e-02   1.6558383e-02
  7.4742332e-02   1.7401446e-02
  5.5915210e-02   1.3095040e-02
  3.9351494e-03   1.6222417e-02
  6.3249700e-02   2.7789831e-02
  7.7975601e-02   1.1258709e-02
 -2.1769550e-02   1.9207720e-02
  1.3358966e+00   7.1281139e-03
 -1.1081792e-02   3.1128338e-02
  2.4751727e-01   6.3413205e-03
 -1.0567398e-01   6.3200849e-03
  1.8394664e-02   1.5866211e-02
 -7.1673714e-02   1.0460392e-02
 -7.1772218e-02   2.3196924e-02
 -5.2559398e-02   6.8314457e-03
  1.9119339e-02   4.6887800e-02
 -3.0429527e-01   1.2434309e-02
 -3.5088733e-02   3.4267016e-02
  7.1664549e-02   5.8554946e-03
 -5.4905593e-02   2.4156511e-02
 -2.4745489e-02   2.2350722e-03
  2.2519247e-01   4.0080082e-03
  2.4034432e-03   8.4708389e-03
 -1.7467958e-01   2.9916926e-03
 -7.2118148e-02   3.8927759e-03
  5.3186309e-02   1.7224597e-02
  1.2548155e-02   2.1325696e-02
 -1.0839591e-02   1.9902181e-02
  6.2356971e-02   1.7742902e-02
  3.7321225e-01   2.1116510e-02
 -3.2766663e-02   2.7462883e-02
 -2.4615160e-01   4.5714541e-03
  1.4395492e-01   1.4056806e-02
 -6.6553876e-02   1.0150719e-02
 -3.0877160e-02   9.0927361e-03
 -5.8915460e-01   5.9198532e-03
 -4.4420645e-02   1.0776915e-02
  2.2662099e-01   8.8823214e-03
 -7.2031677e-02   6.1344504e-03
  7.2483784e-01   1.6864944e-03
  1.2164935e-02   2.2459770e-02
  5.4641581e-01   5.0248429e-03
  9.5917195e-02   1.5531929e-02
 -2.0045279e-01   7.8674527e-03
 -8.6091357e-01   1.2224820e-02
  4.2888846e-02   3.9290287e-02
  1.0229166e-01   2.0830279e-02
  2.1023504e-03   1.0096108e-02
 -6.1054811e-02   1.5661186e-02
  7.1889445e-02   4.6075378e-03
  6.1752830e-02   8.5797394e-04
 -1.8122815e+00   1.0434971e-03
 -2.2762289e+00   1.1076219e-04
 -1.8405372e-01   7.4240281e-03
  3.2879329e-01   1.0787473e-03
 -2.8687071e-02   1.1178903e-02
  1.7406840e-02   6.9100917e-03
  1.3486648e+00   9.0429385e-04
 -1.4630890e-02   5.7660369e-03
 -1.0827351e-01   5.9481338e-03
  2.0603830e-01   5.3062412e-04
 -2.8231947e+00   1.7039109e-03
 -8.4783703e-02   7.2629930e-04
  5.5897385e-02   1.2890958e-02
 -2.7211118e-01   3.6826888e-03
  9.6816015e-01   7.8656944e-03
  1.0797472e-01   1.0826170e-02
 -1.9679619e+00   4.0416073e-04
 -2.8867316e-02   1.2349724e-02
 -5.5432963e-01   2.1709902e-04
  1.2185165e-01   3.8580354e-02
  1.8995447e-01   6.0924684e-04
  1.8358265e-01   5.7501317e-04
 -6.5300333e-01   8.7133325e-05
  1.3823643e+00   8.0569263e-04
  1.0744527e-01   2.0047366e-03
 -6.8847495e-01   4.3368802e-04
 -4.9115789e-01   7.0710306e-04
  3.7160791e-02   1.3762127e-02
  1.1267549e+00   1.4052548e-03
 -1.4624164e-01   1.6362155e-04
  2.6311564e-01   5.3130911e-04
 -8.6599821e-01   1.9341293e-04
 -8.1335202e-02   1.2309642e-03
  1.6095661e-01   1.0467671e-04
 -1.2182149e-02   4.2599149e-04
  2.9424489e-02   5.7096791e-04