  1.3649669e-02   8.4800826e-04
  3.8452700e-04   7.7307085e-04
  2.0953862e-03   8.7439723e-04
 -3.8641998e-01   5.6981517e-04
 -5.5312011e-03   6.4172968e-04
 -5.7316953e-03   1.8625426e-03
 -1.8633818e-03   4.7711204e-04
  1.1164293e-01   8.6992444e-04
 -1.8039614e-02   1.6968307e-03
 -6.8988005e-04   3.5985184e-03
 -8.0487896e-03   6.6726038e-04
  3.4176921e-03   1.9112403e-03
  7.6231919e-04   1.0352535e-03
  1.4071987e-04   2.5846618e-03
 -2.2001292e-03   1.0623627e-03
  3.7801190e-05   1.0721874e-03
  1.6293989e-02   1.5220864e-03
 -4.1369805e-03   9.6218125e-04
 -6.9172680e-04   1.4777306e-03
  2.3944277e-02   1.5164620e-03
  1.2559004e-02   3.3417237e-03
 -1.5425083e-03   1.1548144e-03
  1.0294282e-02   3.1971468e-03
 -4.2481385e-03   7.2040153e-04
  5.2821352e-03   7.0640421e-04
  4.6454463e-04   1.8624269e-03
  4.7955825e-04   2.0433811e-03
 -2.2047914e-03   7.8804261e-04
  4.9290648e-03   1.4676541e-03
  3.2356754e-02   1.9697085e-05
  1.5151149e-03   5.1377102e-04
 -2.2414202e-02   1.1270646e-03
  8.6725978e-03   2.6949188e-03
  4.4044000e-03   6.9423870e-04
 -1.5573116e-04   1.2307497e-03
  3.5281726e-03   2.0747699e-03
 -1.0702327e-02   1.6915462e-03
  8.3160447e-03   3.5342714e-03
 -2.2179306e-02   9.5435855e-04
 -7.2156792e-03   1.6346242e-03
 -1.8169302e-03   5.7592936e-04
 -9.6556274e-03   2.1600393e-03
 -1.9367747e-02   3.2830185e-03
 -1.0519996e-02   1.6656728e-03
  4.0655956e-03   4.4511326e-04
  2.5328044e-02   9.0152411e-05
 -5.8475915e-02   1.8962609e-04
 -1.0235538e-01   2.0812817e-04
 -3.3300322e-01   2.0338420e-04
 -5.7766363e-03   3.0934287e-04
 -1.6148271e-03   2.6528389e-04
 -6.7108506e-01   3.8364515e-04
  3.6234818e-03   4.6605562e-04
 -2.8760780e-02   3.2165525e-03
 -9.7070197e-03   4.7059110e-04
 -1.4970087e-03   1.6316245e-03
  1.0407901e-01   2.6698303e-03
  5.1542416e-02   1.1163955e-03
  6.1033662e-02   2.3373775e-04
  4.9309125e-03   2.6818377e-04
  1.0422681e-02   5.3374592e-04
  1.0207789e-02   1.8619748e-03
 -5.4055252e-03   3.5648679e-04
 -1.2889783e-01   4.3322705e-04
 -4.9223187e-03   2.1591737e-04
 -2.1010183e-01   3.7484599e-04
 -7.2910488e-03   1.4470104e-03
  1.4358757e-03   8.6255302e-04
 -4.0765190e-03   1.4893666e-03
 -1.5934741e-02   5.9602066e-04
 -8.5595265e-02   6.5999263e-04
 -2.0682720e-02   6.9520733e-04
 -3.0815627e-02   1.2119038e-03
  7.1292050e-02   3.6443907e-04
 -7.4991109e-03   2.2271320e-03
  1.7610295e-02   1.5262894e-03
 -2.6081512e-02   1.2180716e-03
 -7.2216959e-04   1.4369793e-03
 -2.8542111e-02   4.7893653e-04
 -1.1025542e-02   2.2172576e-03
 -6.5277717e-03   1.6083482e-04
  3.0517835e-02   1.9425219e-03
  2.6059896e-03   1.2057631e-03
 -4.4013109e-02   3.5236040e-03
 -1.2611138e-03   8.2001631e-04
 -1.1184660e-02   2.5144801e-03
  5.3929980e-05   3.8898811e-03
  6.8442565e-03   1.7975944e-03
  5.9987116e-03   3.2977217e-03
  7.0476141e-03   1.3792409e-03
  7.0029926e-03   2.3627344e-03
  7.7787307e-03   1.1604802e-03
  6.2668063e-03   2.7993077e-03
 -3.9199265e-03   9.6278678e-04
  5.2251043e-03   1.0659063e-03
  2.9761589e-03   6.2997168e-04
  9.8214559e-03   2.4319245e-03
 -1.1388234e-04   8.2424836e-04
  4.8099161e-04   2.1704154e-03
 -1.0341995e-03   1.8312550e-03
  2.0095691e-02   3.8087547e-03
  2.1088116e-03   1.5826067e-03
  1.0471441e-03   4.8165256e-03
 -1.6200521e-03   2.0886941e-03
 -3.4696329e-03   2.3021621e-03
  9.3525480e-03   3.4546780e-03
  1.5525369e-02   2.0969060e-04
 -3.1583756e-03   1.1706152e-03
  4.5984364e-03   2.2053896e-03
 -6.2752394e-03   1.9315518e-03
 -8.8489158e-03   4.3270522e-04
  7.8676250e-03   1.6304576e-03
 -8.4447674e-04   2.8604923e-03
 -2.9319462e-03   1.6876035e-03
  5.3089717e-03   1.1205053e-03
  5.4744519e-03   3.0352317e-03
  4.8392578e-03   1.4830402e-03
 -1.3252478e-02   1.2548784e-03
 -2.1379583e-03   1.1715783e-03
  8.2181953e-03   1.5403739e-03
 -3.0010678e-03   3.3206493e-03
  8.8621285e-03   2.0701482e-03
  1.5441934e+00   2.5253143e-04
  2.3556545e-03   2.0540988e-03
  1.5825157e-03   4.8462814e-03
 -8.0686174e-03   4.1015022e-03
  3.1252960e-03   1.1602043e-03
 -2.8977604e-03   2.6446709e-03
 -4.2680148e-03   1.9141914e-03
 -2.3581036e-03   2.3665521e-03
  3.2754173e-03   1.1181475e-03
 -7.4762683e-03   2.0980944e-03
  6.7155478e-03   4.5218691e-04
  1.4783404e-02   8.7783433e-04
  2.1925980e-02   1.2786526e-03
 -2.8861862e-01   2.2463598e-04
  1.8898222e-01   5.0344452e-04
  2.4813826e-03   1.5544002e-03
 -1.0402332e-02   1.2284323e-03
 -6.0607232e-03   1.1435010e-03
 -5.4738196e-03   7.8406726e-04
 -6.5180822e-03   3.4222787e-03
 -8.0688214e-03   2.6989917e-03
  1.5735689e-03   1.6331419e-03
 -1.1641011e-02   2.1258134e-03
  3.2136519e-02   6.0963689e-04
 -1.2097222e-03   1.4496295e-03
 -2.3026969e-03   2.3345156e-03
 -4.5327805e-03   2.3642746e-03
 -1.9715672e-02   1.7172823e-03
  3.6081951e-04   9.8266464e-04
 -7.4565253e-04   2.8649068e-03
 -2.1935296e-03   1.1788964e-03
 -2.9967146e-04   2.3252550e-03
  4.3172175e-03   2.3164714e-03
  7.1637495e-04   2.9960868e-04
 -3.4810766e-03   2.8758727e-03
 -2.8286016e-01   1.4393671e-05
  1.2583818e-03   3.5395909e-03
  3.7698990e-03   3.7970243e-03
 -1.1768230e-02   1.9719128e-03
  8.0254339e-03   1.7719185e-03
 -5.4146722e-04   1.0865049e-03
  2.9859699e-03   1.4309235e-03
 -4.8658932e-03   1.3593889e-03
 -1.6135963e-02   1.9588873e-03
  7.3743020e-03   8.5858145e-04
  1.6227581e-03   3.1049633e-03
  3.0499804e-03   3.1445592e-03
  1.2077598e-03   1.7888221e-03
 -5.1286803e-03   2.9726594e-03
 -1.3659964e-03   4.0804511e-03
 -5.0110612e-03   1.1878432e-03
 -6.9203641e-05   2.9449495e-03
 -8.0667082e-03   9.0441626e-04
 -1.0684568e-03   1.9631637e-03
 -1.5428174e-01   9.3179995e-05
 -5.4261714e-01   1.5323226e-04
  5.2538878e-01   1.0233692e-04
  5.1135840e-03   1.2032245e-04
  1.1728327e-01   1.2605148e-04
 -2.7877567e-02   2.9911083e-04
 -9.3644209e-02   1.9100433e-05
 -1.6659874e-01   1.1823302e-04
 -1.7703830e-01   1.1454146e-04
 -3.1117663e-01   7.0004008e-04
 -4.8106605e-01   5.6757370e-04
  2.4393746e-01   8.1391010e-04
 -2.1457169e-02   1.2046644e-04
 -3.1798795e-01   2.9547999e-04
 -4.9337104e-01   1.0989587e-03
  2.2064976e-01   7.5372483e-04
 -1.0826391e-02   8.2703505e-04
 -3.1166765e-01   4.0177788e-04
 -6.6934931e-01   1.4992891e-04
  3.9812201e-03   1.8742526e-04
 -1.7126444e-01   2.7971229e-04
 -4.9092218e-01   1.8198120e-04
 -4.8198360e-01   3.0980280e-04
 -3.6918700e-01   1.5710987e-04
 -3.2236016e-01   5.6349870e-04
 -3.5004848e-01   1.8839387e-04
 -2.9402432e-01   9.5383330e-05
 -1.4785907e-01   2.6984527e-04
  1.1946118e-01   2.5814329e-04
  6.2121384e-02   1.9874168e-04
 -7.0190236e-02   3.5667437e-04
 -3.7120160e-01   7.2423456e-04
 -4.4266465e-03   1.0452251e-03
 -2.6593259e-02   1.1305519e-03
 -2.2258945e-01   1.5764017e-04
 -2.3166658e-02   3.3842723e-04
 -1.0295302e-01   8.6080038e-04
 -1.8998383e-01   1.3945792e-03
 -5.0221407e-03   1.1305290e-03
  1.4921796e-01   6.6711346e-04
  2.0587277e-02   4.7310715e-04
  4.7903806e-03   1.5333003e-03
  1.2658466e-01   6.2267453e-04
  3.1292841e-01   2.4471909e-03
 -6.0914540e-01   3.1452561e-05
  1.7118790e+00   2.2436252e-04
 -3.4503140e+00   3.8181039e-04
  8.5748591e-02   6.0540664e-05
  9.8988831e-01   6.6008986e-05
 -5.2778387e-01   1.6475003e-04
 -6.7114252e-01   1.9499649e-04
  3.2466367e-01   1.6610812e-04
  4.7059783e-01   6.7708766e-05
  3.3194080e-02   2.8197700e-03
  2.4750765e-02   1.4167553e-03
 -2.6457429e-01   1.0517529e-03
 -1.3597028e+00   1.4196318e-03
  4.1464743e-01   1.2792416e-03
 -4.0764830e-01   1.3646889e-03
 -3.7546489e-01   2.6378431e-03
 -8.3988112e-01   1.9024531e-03
  8.7337926e-02   6.8651268e-04
  3.2764900e-01   7.8011141e-04
  1.2806160e+00   2.6057439e-04
  1.4839697e-01   9.6728286e-04
  2.9321951e-01   4.6811631e-04
  1.3490740e-02   6.8400835e-04
  4.8837781e-02   6.4069242e-04
  2.5774237e-02   9.6614810e-04
 -7.9744145e-02   1.5501301e-04
  3.1362802e-01   1.7552084e-04
  3.3366200e-02   5.5916462e-04
 -2.3710461e-01   3.6399570e-04
 -3.5847887e-01   3.0283901e-04
 -3.6577187e-02   7.7358959e-04
  4.7549248e-01   1.8332215e-04
  4.9354944e-01   7.5583666e-04
  3.8633668e-01   1.8749650e-03
  2.3102525e-01   1.5226236e-04
  2.2682138e-02   7.4595225e-04
  2.4223679e-01   1.3088305e-03
  1.3362778e-03   1.1909966e-03
 -6.7593751e-04   1.5607827e-03
  2.8357756e-01   9.3647116e-04
  2.2414949e-02   9.5042004e-04
 -5.7582162e-02   7.1027520e-04
  2.4000929e-01   1.2308132e-03
  1.5257590e-01   6.9221336e-04
 -2.6194343e-01   7.9269012e-05
 -1.0871935e-01   8.6791451e-06
 -1.0780513e+00   3.6317946e-05
 -6.8692636e-01   5.5356315e-05
  1.5581897e+00   6.1935767e-05
  1.8580700e-01   1.5943940e-06
  1.4811476e-01   1.1188742e-04
  4.5071669e-02   1.0028288e-04
 -5.1590943e-01   4.9883351e-06
  3.8724440e-01   3.1171722e-04
  1.1417283e+00   4.1661336e-04
  2.8095311e-02   9.0032490e-04
  3.4369346e-02   1.2238382e-03
  6.1185068e-01   8.1875958e-05
  7.0338047e-01   5.4283696e-04
 -5.7799041e-01   1.3279647e-03
 -3.4291660e-03   1.1929717e-03
  1.1790786e+00   2.3149628e-04
  5.6747828e-02   3.9815242e-04
 -5.9838873e-01   3.0619945e-04
  2.6340798e-02   1.2043968e-04
  8.1901008e-01   5.4712925e-04
  6.9082779e-01   1.6117948e-03
  5.0785655e-01   1.2206490e-04
  1.5648804e+00   1.0988406e-03
  1.2791308e+00   2.8057618e-04
  1.0009699e-01   6.7894427e-05
 -3.5330939e-01   1.3114575e-04
 -9.0895534e-01   1.6529190e-04
 -4.1509271e-01   6.3812397e-05
  1.9669784e-02   1.6404125e-04
  2.2664730e-01   1.6561049e-04
  1.2992827e+00   5.1663956e-04
 -9.3511546e-01   6.2148384e-04
 -1.2196375e+00   1.0325482e-04
  9.7367410e-03   8.1945065e-04
  4.7965118e-01   1.5053857e-03
  6.9385173e-04   6.6006195e-04
 -4.9038245e-03   1.1590645e-03
 -9.9578992e-02   1.3903072e-03
 -5.8826357e-03   6.1347848e-04
 -5.2797556e-01   1.5635961e-03
 -3.1174205e-02   9.5193944e-04
 -1.7058587e-02   1.5086705e-03
  4.2296442e-01   2.0287720e-04
  1.3841358e-01   3.2783585e-04
 -3.0837500e-01   1.2802293e-03
  5.8531797e-01   9.0076021e-05
  5.0283897e-01   4.2598482e-04
  1.1823723e-03   8.9313049e-04
  5.0867260e-03   6.0237834e-04
 -7.1070679e-02   3.4725844e-04
 -6.7229666e-02   9.0525730e-04
  3.2423227e-03   1.0927828e-03
 -1.3897342e-03   1.4179711e-03
  1.8068904e-02   1.6385136e-03
 -4.3650758e-02   2.8089238e-03
 -5.7896678e-03   8.1474683e-04
 -2.6781417e-02   1.1098511e-03
  3.0844443e-04   1.7429345e-03
 -3.0258871e-03   2.8060386e-03
 -1.7821871e-03   1.5742492e-03
  1.7771907e-01   4.6223766e-04
  2.9461100e-03   1.3415844e-03
 -2.7188148e-02   2.3866656e-04
  3.7031233e-02   7.0024090e-04
 -1.6410257e-03   8.6042215e-04
 -5.4966095e-03   1.0527838e-03
 -9.1259629e-03   3.2351224e-03
  1.1725478e-02   2.9542400e-03
  1.4087099e-01   7.8812137e-04
  1.1838409e-01   7.5472606e-04
  8.6868905e-02   1.4738487e-03
 -6.7316238e-03   2.5037056e-04
  6.7672096e-03   1.8030155e-03
  8.4854034e-04   1.2727191e-03
 -2.0184095e-03   1.0053921e-03
  1.0135664e-02   2.0793779e-03
  7.1791708e-02   6.3381763e-04
  4.1714459e-04   1.6716527e-03
  3.7823519e-04   9.0502365e-04
 -4.4376690e-02   1.9251035e-03
  2.3734237e-03   2.0368530e-03
 -1.3247448e-03   1.8351806e-03
  1.6401262e-03   3.8585453e-03
 -2.0878136e-03   7.5666438e-04
 -2.0281223e-03   8.8367466e-04
 -2.0413198e-02   1.4173990e-03
 -6.6918904e-01   9.7533957e-05
  2.4875300e+00   9.5920652e-05
 -3.8707805e-01   1.7782749e-04
  6.4560270e-01   1.4149753e-04
  2.4583118e+00   1.4802600e-04
  4.6697640e-01   5.4949138e-04
 -1.6012874e+00   2.4715735e-04
  1.3409470e-01   2.8914454e-05
 -3.1071061e-01   3.5819667e-05
  1.8604811e-01   3.3704794e-03
  9.5638158e-03   1.9743969e-03
 -9.8941219e-01   1.2949214e-03
  1.2666404e-01   2.7066339e-03
 -1.5301268e-01   1.3872386e-03
  2.9891354e-01   1.2946381e-03
 -1.1454310e-02   1.7322302e-03
  1.6275708e-01   5.6988874e-04
  2.7077124e-01   6.7603862e-04
  4.4069013e-01   2.4393883e-04
 -2.0815642e-01   7.6243555e-04
 -1.4765933e-01   1.7944386e-04
 -2.3641382e-01   1.3254777e-03
 -1.0818881e-03   6.8995991e-04
 -2.7408439e-03   1.8138648e-03
  5.5913043e-01   3.6374514e-03
 -1.6818863e-03   1.5042503e-03
  8.7820172e-02   1.0219372e-03
 -1.3675953e-01   8.8477595e-04
 -3.8283491e-03   1.0569314e-03
 -1.1311973e-02   1.0432381e-03
  3.3084504e-02   1.2513683e-03
  9.6079022e-02   3.4970266e-03
 -3.1147194e-03   7.4069988e-04
 -8.6935359e-04   6.0481508e-04
 -1.1094220e-02   5.4450636e-04
  1.8239427e-02   3.1733501e-03
 -6.4948881e-03   7.8035740e-04
 -1.5904071e-02   1.8895714e-03
 -1.9099354e-03   1.1406180e-03
  6.4759669e-03   1.0424382e-03
  2.2475915e-02   2.3110111e-03
  3.8227791e-01   2.0409829e-03
 -7.3578925e-04   3.1159476e-03
  5.5746391e-02   2.0731196e-03
  4.5605454e-01   3.5769321e-04
 -1.1927886e+00   3.7300662e-05
  7.6899409e-02   8.3945190e-05
 -9.0444285e-01   8.6439366e-05
  4.9976745e-01   1.0793905e-04
  6.1390042e-01   1.2593722e-04
 -1.1421571e-01   1.9069786e-04
 -1.2249478e+00   1.6287362e-04
  1.9784740e-01   2.7172875e-05
  5.5901491e-04   1.3457127e-03
  2.2652394e-03   9.1363664e-04
  1.1773306e-01   7.5819471e-04
 -9.1080606e-01   1.7218367e-03
  1.8410219e-02   2.6426322e-04
 -1.4266703e-01   7.3101156e-04
 -4.1695274e-03   1.3152115e-03
 -2.7835980e-01   3.8607221e-04
  1.4167088e-01   2.0880855e-04
  3.9740968e-01   4.1631318e-04
  2.1181959e-01   1.8313614e-04
  3.7026656e-01   2.4010542e-04
  6.7209885e-02   9.3320501e-05
  4.6193796e-01   4.8703115e-04
  7.9669869e-01   1.1603682e-04
 -1.9377828e-04   3.5889164e-04
  1.2029900e-01   6.2928064e-04
 -1.5757062e+00   2.8304703e-04
  6.6277188e-01   8.1543322e-04
 -1.3355735e-03   3.5245789e-04
 -1.7367297e-01   1.1976113e-04
 -8.7207668e-03   8.4359315e-04
 -2.6510584e-01   8.7536604e-04
 -4.0585870e-01   1.8391329e-04
  1.8397436e-03   1.1317262e-03
 -1.1063672e-02   5.7610578e-04
 -4.8410948e-02   6.8536674e-04
  5.7571949e-03   1.7108981e-04
 -2.5719317e-02   1.6943491e-03
 -1.2713159e-02   7.9499616e-04
  2.6149943e-01   2.4044455e-03
  1.1047191e-04   1.1412683e-03
 -2.1861976e-03   8.1042049e-04
  2.3061192e-01   1.7871660e-04
  4.5987759e-02   2.3976124e-03
 -1.0027605e-01   6.9984730e-05
  2.9346430e-01   7.5936427e-05
  6.9487298e-01   1.0579825e-04
  1.0340236e+00   1.0428276e-05
  3.4296808e-01   8.6954242e-05
 -1.3417809e-01   9.0314155e-05
 -8.9120662e-01   8.3720231e-05
  2.0080912e-01   8.5189589e-05
 -9.6275836e-01   4.7629062e-05
  2.7444029e-01   6.0599955e-04
 -4.0011685e-02   2.8859224e-04
 -9.5226932e-01   3.6367716e-04
  7.7775109e-01   1.9469950e-03
 -5.7882679e-01   3.1518834e-04
  2.7137044e-01   1.4179565e-03
  9.4119050e-03   7.4211130e-04
  3.2647723e-01   1.0995842e-04
  1.7209063e-01   1.5330072e-04
 -1.4468515e+00   2.0130485e-04
  2.3643200e-01   1.6153735e-04
  4.9342010e-02   3.8225856e-04
  4.0016180e-01   2.6832204e-04
  1.4983819e-01   2.7530317e-04
  1.7273080e+00   1.9439890e-04
  1.3453150e+00   7.6424138e-04
 -2.0631969e+00   4.4468444e-04
 -3.2309473e-01   1.5559928e-04
  3.2198688e-01   2.9603866e-04
 -6.7171097e-02   2.4436371e-04
  6.9534653e-01   2.4029214e-04
  3.9744434e-01   1.7483052e-04
  7.5610900e-01   6.3763029e-04
 -6.4126492e-02   4.9874448e-04
 -2.7594188e-01   7.0331729e-04
  1.4249490e-01   2.3308572e-04
  1.2907641e-01   1.3056255e-03
  5.8690637e-01   6.6791102e-04
 -5.3913987e-01   6.2231004e-04
 -2.6708198e-01   6.5034453e-04
 -3.5256729e-01   1.1634714e-03
  3.1952884e-02   1.7858087e-04
 -5.3753299e-03   1.2262266e-03
 -2.3992419e-02   8.7325217e-04
 -1.0783279e-01   1.7366302e-03
  5.2170590e-03   3.7753014e-04
 -3.2936327e-02   6.7386813e-05
  6.4172256e-03   7.1539771e-04
  1.0544489e-01   9.2297437e-04
  1.2323891e-02   2.7143338e-04
 -7.3687673e-02   1.7841829e-03
  5.6070987e-02   9.1616961e-04
  1.6859622e+00   3.5631910e-04
  4.7297802e-04   9.5427310e-04
 -2.1277647e-03   1.1561750e-03
  1.1012455e-02   2.0445818e-03
  7.2003005e-04   1.4841458e-03
  7.1730189e-02   7.2040193e-04
 -7.8973901e-01   2.9063001e-04
 -5.1350719e-03   4.7147451e-03
  2.7653201e-02   2.8463078e-03
 -5.3788605e-04   4.4907765e-03
 -7.8540612e-03   2.2647185e-03
 -2.0031515e-03   3.1436810e-03
  5.6210100e-03   1.7606366e-03
 -2.1252144e-02   6.9079292e-04
  3.1050048e-03   2.7499995e-03
  1.1072077e-02   5.6878524e-04
 -1.3232364e-02   3.7901627e-03
 -3.9213328e-03   1.6428631e-03
  3.7758374e-03   7.3519966e-04
 -2.2399835e-03   3.2344472e-04
  7.8151084e-04   2.2147014e-03
 -5.6117837e-04   5.6315190e-04
  2.8411539e-03   5.2649685e-04
  1.5657598e-03   2.1837300e-03
 -6.4181164e-03   2.7296711e-03
 -1.9524337e-03   3.8270431e-03
  2.6181836e-02   2.8651718e-03
 -3.9487062e-03   2.0704260e-03
 -1.2576455e-02   1.1071364e-03
  3.5115909e-03   2.7792740e-03
 -1.2633973e-02   2.9487209e-03
  7.8041856e-03   3.1121113e-04
 -4.7884351e-03   2.7780503e-03
  8.2863159e-03   1.6943355e-03
 -1.9637985e-02   2.7279414e-03
  3.6941480e-03   1.7659026e-03
 -1.1307517e-02   2.7503988e-03
 -5.9092522e-02   5.6698825e-04
 -6.3215241e-02   3.5891062e-04
  1.4681167e-03   7.3237304e-04
 -4.9348570e-02   5.4541335e-04
 -3.1225168e-04   3.0976761e-04
 -1.9278618e-02   3.9517233e-04
  4.4800011e-03   1.7749541e-04
  5.6500774e-02   4.8009027e-04
 -1.7505981e-02   1.9202834e-04
 -1.9377282e-02   1.3589115e-03
 -3.1526340e-03   1.2784885e-03
  2.1482652e-02   9.0815837e-04
 -4.8299469e-03   1.9172410e-03
  1.3318263e-03   1.9578842e-04
 -1.1465868e-02   3.6474625e-03
 -5.4083029e-03   2.4881477e-03
 -1.2740647e-02   9.8200166e-04
 -7.7144995e-02   2.0872364e-03
 -4.6730351e-02   1.1183098e-03
 -6.0841464e-03   7.5716514e-04
  1.5706073e-03   7.1831699e-04
 -2.3247390e-03   9.6031715e-04
 -4.6232633e-02   8.0069393e-04
 -6.9374777e-03   7.5948029e-04
 -6.6104189e-02   5.8984634e-04
  1.1760301e-02   8.4162730e-04
  1.0686874e-02   5.1218091e-04
 -2.5319587e-04   7.5307931e-04
  2.4412215e-02   4.4751717e-04
 -4.1704793e-03   1.2889324e-03
  7.1257469e-03   1.9132114e-03
 -9.5256036e-03   2.0352029e-03
  2.4185479e-03   2.1117600e-03
 -3.7058201e-03   1.6213387e-03
 -4.4489856e-04   6.8905641e-04
  8.9480856e-04   8.4050151e-04
  9.3096541e-03   1.8697507e-03
 -1.8690736e-03   3.6965595e-03
  3.4795620e-03   1.1106320e-03
 -6.3076206e-03   2.3935083e-03
 -2.2502670e-03   5.4857670e-04
  2.2072649e-02   5.2835827e-04
 -1.4436770e-03   3.7720678e-03
 -2.1465034e-03   2.5880185e-03
 -1.9499792e-02   5.6991202e-04
 -1.6513709e-02   9.4167754e-04
 -4.2595137e-03   1.6697037e-03
 -9.7483635e-02   8.7399629e-04
 -1.3552032e-02   1.1554903e-03
  1.2648086e-03   1.7569474e-03
 -2.9946685e-02   1.4060349e-04
 -4.5846854e-03   1.0193754e-03
  2.2777941e-03   1.7988503e-03
 -1.9514045e-02   7.5593841e-04
 -4.5499578e-03   9.3225582e-04
  6.4597237e-03   6.5175345e-04
  9.1473209e-03   1.7577348e-03
  1.5197956e-03   1.1885274e-03
 -3.2464734e-03   2.9691216e-03
 -1.0056081e-02   2.2371816e-03
 -5.7605896e-03   3.7427191e-03
  1.6046293e-03   3.5357217e-03
 -2.4081662e-03   7.9892535e-04
  3.8555777e-03   1.3589854e-03
  1.9421304e-02   1.1155345e-03
 -1.4946709e-05   1.1785449e-03
 -1.0522676e-02   2.6795685e-03
  2.3647847e-03   1.1538275e-03
 -4.6870220e-03   2.2118820e-03
  3.6910360e-04   1.8807490e-03
 -1.1655818e-02   1.3420350e-03
  5.1557244e-04   5.1439588e-04
  8.9722294e-03   6.2272948e-04
  3.2330514e-03   5.5039575e-04
  5.1472606e-03   2.4625333e-03
 -3.5483729e-02   2.5556926e-04
 -9.0163655e-04   2.5554185e-03
  1.7705627e-02   4.7608265e-03
 -1.4631354e-02   1.6607712e-03
 -4.0659681e-03   2.2722417e-03
  2.4161211e-03   2.1500613e-03
  3.6024528e-03   2.4619100e-03
  2.9479815e-03   2.2168313e-03
  2.0385848e-02   2.6594105e-03
  5.3324183e-03   2.1453453e-03
  4.2479411e-03   1.8653100e-03
 -1.8946847e-02   5.8975286e-04
  7.0294249e-03   1.1813132e-03
 -5.4347720e-02   1.4396027e-03
  4.1317525e-03   5.6288479e-04
  4.9834163e-03   1.4439435e-03
  2.1887799e-01   7.8385015e-04
 -4.0351269e-01   1.8536286e-04
 -1.3883676e-02   5.1079039e-04
 -2.3783424e-03   1.1362521e-03
 -1.7291406e-03   9.4516610e-04
  1.2514974e-02   9.0495555e-04
 -4.2007859e-03   3.9125709e-03
 -1.8090690e-02   2.1599708e-03
  2.4002623e-02   3.2409872e-03
 -8.0339629e-03   1.1324589e-03
  8.1783794e-03   2.0871984e-03
 -4.6110121e-03   8.2358852e-04
  7.8270183e-04   3.1537088e-03
 -7.3190737e-03   4.9603463e-04
 -9.8071449e-02   4.1144961e-04
 -1.2514538e-02   1.3886037e-03
 -9.5425528e-03   1.1931298e-03
  2.8293480e-03   1.3672991e-03
 -4.7069024e-03   8.2402973e-04
 -8.7184226e-04   6.9301418e-04
 -5.9880032e-03   1.4586697e-03
 -5.0862163e-01   2.9454901e-04
  1.5396723e-02   2.0646756e-03
  4.3641925e-03   1.0039936e-03
 -7.4882158e-03   1.3434318e-03
  4.9064006e-04   3.5640760e-04
 -1.4747310e-02   1.1086324e-03
  3.0626659e-03   2.7396213e-03
 -4.2755774e-04   2.7311484e-03
  1.9389276e-03   8.5551810e-04
 -5.8247293e-03   1.6242509e-03
 -8.2292536e-04   7.0976978e-04
  5.3173751e-03   3.8746084e-04
 -1.3993765e-02   2.0528266e-03
 -8.4007950e-03   1.8301781e-03
 -8.5791433e-03   3.6586158e-03
  1.9208157e-02   4.7373268e-04
  1.7362591e-02   5.1949900e-03
  7.1098632e-03   1.0036717e-03
 -1.0434163e-02   2.1433278e-03
  1.9602153e-02   3.0120693e-03
  2.3700327e-02   1.6996062e-03
  5.3677349e-03   2.5100813e-03
  2.4905060e-03   2.8472526e-03
  1.1403656e-03   1.6011319e-03
 -1.3352925e-02   8.9442410e-04
 -4.1367076e-03   2.7370674e-03
 -4.5087929e-03   1.1444223e-03
 -3.5391147e-03   1.2983362e-03
 -5.9623178e-03   6.3197350e-04
  1.7608708e-02   3.0695703e-03
 -1.2660704e-02   1.7520029e-03
  1.6367252e-03   4.1152193e-04
  6.2601604e-02   3.0657623e-03
 -1.5703652e-02   3.9216693e-04
 -1.2243734e-02   2.0414095e-03
  5.3622411e-03   2.3828084e-03
  1.6392437e-03   2.0229549e-03
  5.5138906e-03   3.2917054e-03
  3.7978787e-04   7.5507408e-04
 -1.5106540e-02   1.0373002e-03
 -1.2423434e-02   2.8123562e-03
  6.2719490e-03   1.4449427e-03
  4.5754936e-02   1.0132635e-03
 -3.9098607e-03   1.8679325e-03
 -1.1006600e-03   1.5033564e-03
 -4.4433684e-03   1.8979165e-03
  7.9529313e-03   1.3396521e-03
 -2.3244841e-03   1.7316235e-03
 -2.1033166e-02   3.5622376e-03
  1.1985268e-02   2.2711176e-03
  2.4158978e-03   2.6080024e-03
 -7.7407267e-03   5.4006251e-03
  4.4318261e-03   1.0608346e-03
  3.7071717e-03   1.1256789e-03
  1.0105381e-02   3.9108251e-03
  8.5380320e-03   4.0219175e-03
  1.5821015e-02   5.2218386e-03
 -5.6146076e-03   2.4823553e-03
  1.3929280e-04   1.4122224e-03
 -9.3754884e-03   3.2923982e-04
  2.2480793e-02   1.5159189e-03
 -2.6472143e-03   2.2579636e-03
 -3.8350041e-03   2.5458466e-03
  2.5974666e-03   2.9870889e-03
  2.4056427e-01   1.5102152e-04
 -2.0546496e-02   1.1263053e-03
 -1.3553783e-03   2.0419525e-03
 -5.8809817e-03   1.0270366e-03
 -1.2023532e-02   1.4896371e-03
 -3.8022203e-03   9.1392803e-04
 -4.9218824e-03   1.7232446e-03
  6.7134975e-03   1.3595467e-03
 -1.3862866e-02   5.0215278e-04
 -2.4527319e-02   8.1301213e-04
  1.0734293e-02   3.0975891e-03
 -1.8693391e-02   7.6982006e-04
  1.2152933e-02   9.5721916e-04
 -2.8065972e-03   1.0415730e-03
  9.6743312e-03   3.2718650e-03
  9.6875830e-03   2.2208940e-03
  4.7021569e-03   5.5329986e-03
 -1.2388440e-02   1.2136512e-03
  6.3481727e-03   1.8979240e-03
 -1.0559399e-03   1.5274544e-03
 -5.4965448e-03   8.1788888e-04
 -8.5685123e-03   8.6609635e-04
 -7.5975293e-03   1.6614028e-03
  5.8039447e-04   1.2235400e-03
  9.5121295e-04   3.2678733e-04
 -9.2957295e-02   4.7450911e-04
 -4.4437915e-01   9.6428761e-04
 -1.2854501e-03   7.7984150e-04
 -1.6694216e-03   1.4734771e-03
 -7.7479676e-04   1.5600242e-04
  3.5115378e-03   1.4078267e-03
  1.1730020e-02   2.2383779e-03
  6.6835280e-03   4.1132332e-03
  1.4141996e-03   3.2275892e-03
  2.3043379e-03   1.5907333e-03
  5.3918954e-02   6.7525893e-04
 -8.1642130e-03   2.2004854e-03
  2.6852894e-03   1.0482759e-03
 -9.9739749e-03   8.1511575e-04
 -9.7941300e-03   1.5401369e-03
  1.1873702e-02   2.4895454e-03
  1.5482230e-03   2.1033317e-03
 -2.3009066e-02   1.8780004e-03
 -2.6591658e-03   2.2837778e-03
 -4.4601825e-03   4.7904594e-04
 -6.6412240e-02   8.1133592e-04
  4.1117823e-01   1.1622900e-03
 -9.7646445e-02   4.8256616e-04
  1.7408375e-02   4.5061030e-04
 -9.3349159e-02   4.4841337e-04
 -6.5590218e-02   7.3251838e-04
 -2.9208383e-01   2.1434735e-04
 -5.3739119e-02   3.3950407e-04
 -1.8295459e-02   2.2512423e-03
 -7.6771458e-03   1.0799186e-03
  9.4091389e-03   2.3090667e-03
  2.0269642e-03   2.3984516e-03
 -3.5106849e-02   1.5764649e-03
 -1.6697536e-01   1.9535343e-03
  3.1070558e-03   2.6755822e-03
 -2.9157573e-02   1.2980063e-03
 -3.1578876e-03   8.0641959e-04
  2.0472422e-02   8.1669015e-04
 -1.3389060e-02   1.0563039e-03
 -7.7619613e-03   2.9210077e-04
 -1.3071159e-03   6.0213084e-04
 -1.5252407e-02   1.0108677e-03
  6.5107568e-04   4.6183047e-04
 -2.7051792e-02   1.2282727e-03
  2.2695445e-02   4.5131909e-04
  1.0448709e-02   6.8588322e-04
  2.7340349e-02   6.3890975e-04
 -8.5519655e-03   7.3369936e-04
  6.6194437e-02   2.3155010e-04
  2.8781921e-02   1.9821844e-03
 -8.3194859e-02   2.2746364e-03
  1.0468783e-03   1.0517669e-03
  2.8106791e-03   1.0151753e-03
  1.5915968e-04   1.0609288e-03
  7.2936835e-03   1.0843130e-03
  6.4989463e-03   5.0637149e-04
 -1.1896859e-02   8.2339311e-04
 -8.0622667e-03   2.3216400e-03
  9.6959872e-03   1.3479310e-03
  1.8955847e-02   1.4372321e-03
  2.0520605e-02   2.7768523e-03
  1.2970444e-02   2.1000118e-03
  6.0805812e-02   2.2605085e-03
  1.1255510e-01   1.8784722e-04
 -1.6526382e-02   4.2546861e-04
 -2.7630907e-02   4.5139471e-04
  5.1904875e-01   8.4385090e-04
  1.7984079e-02   4.5524133e-04
 -1.0049782e-03   1.1349824e-03
 -1.3146953e-01   2.3924158e-04
 -4.4853464e-01   4.3401399e-04
  1.3387311e-02   1.8867143e-04
  5.2670101e-03   1.1479309e-03
  1.1274857e-02   3.7678108e-03
 -2.6808679e-04   1.7194784e-03
  7.4668452e-03   1.1626811e-03
 -2.2886409e-03   7.9643732e-04
 -9.6879797e-03   1.4283499e-03
 -1.3484858e-02   2.9024577e-03
  2.7660998e-03   1.4648080e-03
  1.0724177e-01   5.1545433e-04
  1.7712707e-02   5.2422774e-04
  8.6206079e-02   7.9443183e-04
 -9.3788188e-03   1.7241291e-03
 -2.8447490e-03   8.0605381e-04
  7.8993505e-03   2.3880531e-04
  2.1483835e-03   3.6279188e-04
  3.9931912e-02   2.8311270e-03
 -4.1913865e-03   8.6879294e-04
 -1.1928957e-02   7.7020057e-04
  3.5150200e-02   2.6749002e-04
 -9.4989734e-03   9.7416661e-04
 -6.9976956e-02   1.9577262e-03
  1.2410074e-02   7.5417844e-04
  2.2506451e-03   1.5408214e-03
  4.8100865e-03   1.8435736e-03
 -6.1696471e-04   6.8159890e-04
 -3.4206978e-03   5.7045079e-04
  2.6203211e-02   5.8338547e-04
  1.4949131e-02   7.2873116e-04
  1.8044304e-02   6.7100691e-04
  6.2118955e-03   2.2672459e-03
  4.5513245e-04   9.3669962e-04
 -1.6497280e-02   2.1879168e-03
 -1.2524248e-03   8.3954365e-04
 -1.1517652e-03   2.0666753e-03
 -8.3698072e-03   2.2309965e-03
  7.3592393e-03   1.5233924e-03
  6.9738226e-03   1.1565234e-03
 -7.2640423e-03   1.4067637e-03
  1.2608510e-03   2.1115118e-03
 -8.1410474e-04   9.6414640e-04
  1.1995072e-03   4.2694393e-03
  3.2288231e-02   3.0215573e-04
  3.2397605e-02   1.7864688e-04
 -4.7419846e-04   5.2386988e-04
 -3.7337426e-04   1.2033881e-03
  4.5363333e-05   2.4166959e-03
 -8.4345313e-03   1.5426321e-03
  1.0010851e-02   2.2982811e-03
  1.5165980e-02   6.5902597e-04
  1.1706444e-02   1.5367467e-03
 -4.6340376e-03   2.9945427e-03
  4.5123510e-03   3.4424916e-03
  7.3936181e-03   1.6248735e-03
  6.4158649e-03   4.5203592e-04
  9.2225969e-03   1.3076576e-03
 -4.3221461e-03   1.8850260e-03
  2.5435328e-04   3.5038802e-03
 -1.4182504e-03   1.1073913e-03
 -1.1082212e-03   3.8316713e-03
  4.4275317e-03   6.5327110e-04
  3.5267454e-03   2.7460880e-03
 -1.0970929e-03   1.0896783e-03
  2.3244044e-03   3.2214790e-03
  1.1206377e-02   1.2162486e-03
 -2.5377672e-02   1.7502651e-03
 -1.3914279e-03   1.4622816e-03
  2.2647630e-03   4.0311781e-03
  2.0686788e-03   2.3949540e-03
  4.4299765e-03   2.5646975e-03
  5.5117374e-03   1.4635379e-03
  4.3004630e-03   1.3273577e-03
  1.8773502e-04   2.2271788e-03
  6.3527608e-03   2.2379782e-03
  9.7932890e-02   1.8454595e-03
  3.0781373e-03   2.5464008e-03
 -6.2948838e-03   2.7069263e-03
  6.7858659e-03   3.1132363e-03
  1.9354827e-03   1.0308415e-03
 -8.7838684e-04   1.7127178e-03
  5.3005118e-04   1.7516129e-03
 -9.5850322e-03   3.3447804e-04
  9.1255074e-03   6.8052032e-04
  1.1733227e-02   7.5780816e-04
  5.7947324e-03   2.9768085e-04
 -3.3633884e-03   8.3973410e-04
  5.6628827e-02   4.0743258e-04
  2.1806648e-01   1.7660971e-04
 -5.8655129e-03   1.0996779e-03
 -1.6189577e-02   1.5497212e-03
 -7.3333032e-04   1.4696160e-03
  7.4960152e-03   1.1031536e-03
 -2.8120440e-03   2.0469360e-03
  1.3872448e-02   2.1933562e-03
  6.1410260e-03   2.0145027e-03
 -2.0670626e-02   3.9235340e-03
 -2.8036317e-04   2.2389146e-03
 -1.6709622e-03   8.4696786e-04
  1.2281386e-02   1.7558926e-03
  1.1006135e-02   2.7392688e-03
  6.3736358e-04   4.4146233e-04
  9.6107796e-03   1.3924501e-03
  2.4483397e-03   1.2099533e-03
 -1.0559064e-03   1.6193169e-03
  2.7672462e-03   1.6184824e-03
  2.8663753e-03   1.6995148e-03
 -7.2162241e-01   9.6385239e-04
 -1.5386606e-03   2.9181121e-03
 -1.3233189e-02   1.3619614e-03
 -3.8055234e-02   1.1328496e-03
 -1.8710315e-03   2.2199557e-03
  2.9361658e-03   2.1155933e-03
  1.0104643e-03   1.0205451e-03
 -3.1496601e-03   2.9553066e-03
 -2.0189814e-03   1.5267804e-03
  7.1830396e-03   2.6717749e-03
 -6.9811725e-04   1.0253129e-03
  3.4163380e-03   1.3811314e-03
 -1.5811205e-02   8.9374476e-04
 -2.5582383e-03   3.4611598e-03
  1.5450614e-03   6.4667501e-04
  1.3355913e-02   2.2935234e-03
 -1.8458980e-03   1.7261069e-03
  3.9902632e-03   1.8231822e-03
 -4.5836315e-02   4.8003011e-04
 -9.5851989e-03   1.4678049e-03
 -9.5005641e-03   1.0535274e-04
 -3.1034998e-03   6.7218533e-04
 -3.3795994e-02   2.9485754e-04
 -3.9540264e-03   4.5220918e-04
  9.7905863e-03   2.5331698e-04
 -2.1368970e-01   6.9868553e-04
  3.1968480e-04   5.6975061e-04
 -4.1785534e-03   2.6534316e-03
 -2.3351720e-02   1.4558797e-03
  5.3121429e-03   1.4555244e-03
 -2.2475597e-02   1.5987117e-04