
***************************************************************
*                 Welcome to use GPUMD                        *
*    (Graphics Processing Units Molecular Dynamics)           *
*                     Version 3.8                             *
*              This is the nep executable                     *
***************************************************************


---------------------------------------------------------------
GPU information:
---------------------------------------------------------------

number of GPUs = 1
Device id:                   0
    Device name:             NVIDIA GeForce RTX 4090
    Compute capability:      8.9
    Amount of global memory: 23.6431 GB
    Number of SMs:           128

---------------------------------------------------------------
Started running nep.
---------------------------------------------------------------


---------------------------------------------------------------
Started reading nep.in.
---------------------------------------------------------------

Input or default parameters:
    (default) model_type = potential.
    (default) calculation mode = train.
    (input)   use NEP version 4.
    (input)   number of atom types = 2.
        (default) type 0 (Cu with Z = 29) has force weight of 1.
        (default) type 1 (Se with Z = 34) has force weight of 1.
    (default) will not add the ZBL potential.
    (input)   radial cutoff = 7 A.
    (input)   angular cutoff = 5 A.
    (input)   n_max_radial = 8.
    (input)   n_max_angular = 6.
    (input)   basis_size_radial = 12.
    (input)   basis_size_angular = 12.
    (input)   l_max_3body = 4.
    (input)   l_max_4body = 2.
    (input)   l_max_5body = 0.
    (input)   number of neurons = 50.
    (default) lambda_1 = -1.
    (default) lambda_2 = -1.
    (input)   lambda_e = 1.
    (input)   lambda_f = 1.
    (input)   lambda_v = 0.2.
    (default) lambda_shear = 1.
    (default) force_delta = 0.
    (input)   batch size = 1000.
    (input)   population size = 50.
    (input)   maximum number of generations = 50000.
Some calculated parameters:
    number of radial descriptor components = 9.
    number of angular descriptor components = 35.
    total number of descriptor components = 44.
    NN architecture = 44-50-1.
    number of NN parameters to be optimized = 4601.
    number of descriptor parameters to be optimized = 832.
    total number of parameters to be optimized = 5433.

---------------------------------------------------------------
Finished reading nep.in.
---------------------------------------------------------------


---------------------------------------------------------------
Started reading train.xyz.
---------------------------------------------------------------

Number of configurations = 370.
Number of devices = 1
Number of batches = 1
Hello, I changed the batch_size from 1000 to 370.

Batch 0:
Number of configurations = 370.

---------------------------------------------------------------
Constructing train_set in device  0.
Total number of atoms = 104820.
Number of atoms in the largest configuration = 596.
Number of configurations having virial = 370.
Radial descriptor with a cutoff of 7 A:
    Minimum number of neighbors for one atom = 63.
    Maximum number of neighbors for one atom = 100.
Angular descriptor with a cutoff of 5 A:
    Minimum number of neighbors for one atom = 20.
    Maximum number of neighbors for one atom = 44.
---------------------------------------------------------------


---------------------------------------------------------------
Started reading test.xyz.
---------------------------------------------------------------

Number of configurations = 170.

---------------------------------------------------------------
Constructing test_set in device  0.
Total number of atoms = 50240.
Number of atoms in the largest configuration = 596.
Number of configurations having virial = 170.
Radial descriptor with a cutoff of 7 A:
    Minimum number of neighbors for one atom = 63.
    Maximum number of neighbors for one atom = 95.
Angular descriptor with a 
***************************************************************
*                 Welcome to use GPUMD                        *
*    (Graphics Processing Units Molecular Dynamics)           *
*                     Version 3.8                             *
*              This is the nep executable                     *
***************************************************************


---------------------------------------------------------------
GPU information:
---------------------------------------------------------------

number of GPUs = 1
Device id:                   0
    Device name:             NVIDIA GeForce RTX 3090
    Compute capability:      8.6
    Amount of global memory: 23.6911 GB
    Number of SMs:           82

---------------------------------------------------------------
Started running nep.
---------------------------------------------------------------


---------------------------------------------------------------
Started reading nep.in.
---------------------------------------------------------------

Input or default parameters:
    (default) model_type = potential.
    (default) calculation mode = train.
    (input)   use NEP version 4.
    (input)   number of atom types = 2.
        (default) type 0 (Cu with Z = 29) has force weight of 1.
        (default) type 1 (Se with Z = 34) has force weight of 1.
    (default) will not add the ZBL potential.
    (input)   radial cutoff = 7 A.
    (input)   angular cutoff = 5 A.
    (input)   n_max_radial = 8.
    (input)   n_max_angular = 6.
    (input)   basis_size_radial = 12.
    (input)   basis_size_angular = 12.
    (input)   l_max_3body = 4.
    (input)   l_max_4body = 2.
    (input)   l_max_5body = 0.
    (input)   number of neurons = 50.
    (default) lambda_1 = -1.
    (default) lambda_2 = -1.
    (input)   lambda_e = 1.
    (input)   lambda_f = 1.
    (input)   lambda_v = 0.2.
    (default) lambda_shear = 1.
    (default) force_delta = 0.
    (input)   batch size = 1000.
    (input)   population size = 50.
    (input)   maximum number of generations = 50000.
Some calculated parameters:
    number of radial descriptor components = 9.
    number of angular descriptor components = 35.
    total number of descriptor components = 44.
    NN architecture = 44-50-1.
    number of NN parameters to be optimized = 4601.
    number of descriptor parameters to be optimized = 832.
    total number of parameters to be optimized = 5433.

---------------------------------------------------------------
Finished reading nep.in.
---------------------------------------------------------------


---------------------------------------------------------------
Started reading train.xyz.
---------------------------------------------------------------

Number of configurations = 370.
Number of devices = 1
Number of batches = 1
Hello, I changed the batch_size from 1000 to 370.

Batch 0:
Number of configurations = 370.

---------------------------------------------------------------
Constructing train_set in device  0.
Total number of atoms = 104820.
Number of atoms in the largest configuration = 596.
Number of configurations having virial = 370.
Radial descriptor with a cutoff of 7 A:
    Minimum number of neighbors for one atom = 63.
    Maximum number of neighbors for one atom = 100.
Angular descriptor with a cutoff of 5 A:
    Minimum number of neighbors for one atom = 20.
    Maximum number of neighbors for one atom = 44.
---------------------------------------------------------------


---------------------------------------------------------------
Started reading test.xyz.
---------------------------------------------------------------

Number of configurations = 170.

---------------------------------------------------------------
Constructing test_set in device  0.
Total number of atoms = 50240.
Number of atoms in the largest configuration = 596.
Number of configurations having virial = 170.
Radial descriptor with a cutoff of 7 A:
    Minimum number of neighbors for one atom = 63.
    Maximum number of neighbors for one atom = 95.
Angular descriptor with a cutoff of 5 A:
    Minimum number of neighbors for one atom = 20.
    Maximum number of neighbors for one atom = 40.
---------------------------------------------------------------


---------------------------------------------------------------
Time used for initialization = 0.319133 s.
---------------------------------------------------------------


---------------------------------------------------------------
Started training.
---------------------------------------------------------------

Step    Total-Loss L1Reg-Loss L2Reg-Loss RMSE-E-Train RMSE-F-Train RMSE-V-Train RMSE-E-Test  RMSE-F-Test  RMSE-V-Test  
100     0.10562    0.01406    0.03052    0.00120      0.05815      0.00841      0.00140      0.05774      0.01044      
200     0.10561    0.01406    0.03052    0.00119      0.05817      0.00837      0.00139      0.05775      0.01038      
300     0.10557    0.01404    0.03050    0.00119      0.05817      0.00834      0.00138      0.05776      0.01038      
400     0.10557    0.01404    0.03050    0.00119      0.05816      0.00838      0.00139      0.05775      0.01044      
500     0.10553    0.01402    0.03049    0.00119      0.05814      0.00842      0.00139      0.05771      0.01046      
600     0.10555    0.01402    0.03049    0.00121      0.05815      0.00838      0.00141      0.05773      0.01037      
700     0.10552    0.01401    0.03049    0.00119      0.05815      0.00842      0.00139      0.05773      0.01044      
800     0.10553    0.01402    0.03048    0.00118      0.05817      0.00839      0.00138      0.05776      0.01042      
900     0.10551    0.01401    0.03047    0.00118      0.05817      0.00837      0.00138      0.05775      0.01040      
1000    0.10551    0.01401    0.03047    0.00121      0.05814      0.00839      0.00141      0.05770      0.01041      
1100    0.10549    0.01401    0.03046    0.00120      0.05814      0.00840      0.00139      0.05771      0.01044      
1200    0.10547    0.01400    0.03046    0.00121      0.05813      0.00842      0.00140      0.05771      0.01049      
1300    0.10547    0.01399    0.03046    0.00120      0.05814      0.00839      0.00140      0.05771      0.01043      
1400    0.10547    0.01399    0.03046    0.00120      0.05814      0.00839      0.00141      0.05773      0.01041      
1500    0.10545    0.01399    0.03045    0.00121      0.05814      0.00835      0.00141      0.05773      0.01038      
1600    0.10546    0.01400    0.03045    0.00122      0.05813      0.00833      0.00142      0.05773      0.01033      
1700    0.10542    0.01398    0.03044    0.00120      0.05814      0.00831      0.00140      0.05773      0.01031      
1800    0.10543    0.01397    0.03044    0.00120      0.05814      0.00837      0.00140      0.05773      0.01039      
1900    0.10542    0.01397    0.03044    0.00119      0.05815      0.00833      0.00139      0.05774      0.01031      
2000    0.10539    0.01395    0.03043    0.00119      0.05814      0.00836      0.00140      0.05773      0.01040      
2100    0.10540    0.01396    0.03043    0.00121      0.05814      0.00834      0.00141      0.05773      0.01034      
2200    0.10538    0.01394    0.03043    0.00120      0.05814      0.00836      0.00140      0.05774      0.01035      
2300    0.10538    0.01395    0.03042    0.00119      0.05813      0.00839      0.00139      0.05772      0.01041      
2400    0.10537    0.01394    0.03041    0.00120      0.05814      0.00837      0.00140      0.05773      0.01039      
2500    0.10533    0.01391    0.03041    0.00121      0.05813      0.00836      0.00141      0.05772      0.01032      
2600    0.10535    0.01394    0.03040    0.00120      0.05813      0.00839      0.00140      0.05772      0.01038      
2700    0.10532    0.01392    0.03040    0.00122      0.05812      0.00835      0.00142      0.05771      0.01036      
2800    0.10531    0.01391    0.03039    0.00121      0.05812      0.00842      0.00140      0.05771      0.01042      
2900    0.10531    0.01392    0.03039    0.00119      0.05813      0.00841      0.00139      0.05772      0.01042      
3000    0.10533    0.01393    0.03039    0.00121      0.05812      0.00841      0.00142      0.05773      0.01039      
3100    0.10531    0.01392    0.03038    0.00118      0.05814      0.00841      0.00138      0.05773      0.01036      
3200    0.10529    0.01391    0.03037    0.00120      0.05814      0.00838      0.00139      0.05773      0.01041      
3300    0.10528    0.01391    0.03037    0.00119      0.05813      0.00840      0.00139      0.05773      0.01042      
3400    0.10526    0.01391    0.03036    0.00119      0.05814      0.00834      0.00138      0.05773      0.01035      
3500    0.10526    0.01391    0.03036    0.00122      0.05811      0.00835      0.00142      0.05770      0.01034      
3600    0.10525    0.01390    0.03035    0.00120      0.05814      0.00831      0.00140      0.05773      0.01029      
3700    0.10525    0.01389    0.03035    0.00118      0.05815      0.00840      0.00137      0.05774      0.01040      
3800    0.10523    0.01388    0.03034    0.00119      0.05814      0.00834      0.00138      0.05775      0.01032      
3900    0.10524    0.01388    0.03035    0.00119      0.05813      0.00842      0.00140      0.05773      0.01044      
4000    0.10520    0.01387    0.03033    0.00120      0.05812      0.00837      0.00140      0.05772      0.01038      
4100    0.10520    0.01386    0.03033    0.00120      0.05813      0.00836      0.00141      0.05772      0.01036      
4200    0.10519    0.01386    0.03033    0.00120      0.05813      0.00836      0.00140      0.05772      0.01036      
4300    0.10519    0.01384    0.03032    0.00119      0.05814      0.00843      0.00140      0.05774      0.01041      
4400    0.10517    0.01384    0.03032    0.00121      0.05812      0.00835      0.00142      0.05772      0.01031      
4500    0.10515    0.01384    0.03032    0.00117      0.05816      0.00836      0.00137      0.05776      0.01036      
4600    0.10516    0.01384    0.03031    0.00120      0.05815      0.00829      0.00141      0.05775      0.01026      
4700    0.10514    0.01385    0.03031    0.00118      0.05814      0.00832      0.00138      0.05773      0.01031      
4800    0.10514    0.01384    0.03031    0.00118      0.05815      0.00834      0.00137      0.05774      0.01036      
4900    0.10511    0.01383    0.03030    0.00119      0.05812      0.00836      0.00139      0.05771      0.01038      
5000    0.10511    0.01383    0.03030    0.00118      0.05814      0.00831      0.00138      0.05772      0.01030      
5100    0.10510    0.01381    0.03029    0.00119      0.05813      0.00841      0.00139      0.05772      0.01041      
5200    0.10511    0.01381    0.03029    0.00120      0.05814      0.00836      0.00140      0.05773      0.01036      
5300    0.10509    0.01381    0.03029    0.00121      0.05812      0.00834      0.00143      0.05771      0.01034      
5400    0.10508    0.01380    0.03028    0.00120      0.05813      0.00834      0.00140      0.05772      0.01037      
5500    0.10508    0.01379    0.03028    0.00120      0.05815      0.00833      0.00139      0.05774      0.01031      
5600    0.10506    0.01379    0.03027    0.00118      0.05814      0.00832      0.00138      0.05773      0.01030      
5700    0.10505    0.01379    0.03027    0.00119      0.05813      0.00835      0.00139      0.05771      0.01033      
5800    0.10506    0.01380    0.03027    0.00119      0.05814      0.00831      0.00139      0.05774      0.01030      
5900    0.10505    0.01379    0.03027    0.00119      0.05813      0.00840      0.00138      0.05774      0.01038      
6000    0.10502    0.01377    0.03026    0.00119      0.05813      0.00834      0.00138      0.05773      0.01035      
6100    0.10502    0.01376    0.03025    0.00118      0.05815      0.00838      0.00137      0.05775      0.01042      
6200    0.10500    0.01375    0.03025    0.00118      0.05815      0.00835      0.00137      0.05773      0.01036      
6300    0.10499    0.01374    0.03025    0.00121      0.05812      0.00835      0.00140      0.05771      0.01038      
6400    0.10496    0.01372    0.03024    0.00120      0.05813      0.00834      0.00139      0.05772      0.01036      
6500    0.10496    0.01373    0.03023    0.00119      0.05814      0.00836      0.00138      0.05773      0.01037      
6600    0.10494    0.01372    0.03023    0.00120      0.05812      0.00837      0.00141      0.05772      0.01037      
6700    0.10492    0.01371    0.03022    0.00119      0.05812      0.00835      0.00139      0.05772      0.01037      
6800    0.10492    0.01370    0.03022    0.00121      0.05811      0.00835      0.00141      0.05771      0.01034      
6900    0.10491    0.01370    0.03021    0.00120      0.05813      0.00834      0.00140      0.05772      0.01031      
7000    0.10490    0.01369    0.03021    0.00121      0.05812      0.00835      0.00142      0.05771      0.01033      
7100    0.10488    0.01368    0.03020    0.00119      0.05814      0.00837      0.00138      0.05774      0.01038      
7200    0.10489    0.01369    0.03020    0.00119      0.05813      0.00838      0.00139      0.05772      0.01037      
7300    0.10487    0.01368    0.03019    0.00119      0.05814      0.00838      0.00139      0.05772      0.01037      
7400    0.10486    0.01366    0.03019    0.00120      0.05813      0.00837      0.00140      0.05772      0.01039      
7500    0.10486    0.01365    0.03019    0.00121      0.05814      0.00838      0.00140      0.05774      0.01034      
7600    0.10483    0.01364    0.03018    0.00120      0.05814      0.00836      0.00139      0.05773      0.01033      
7700    0.10483    0.01364    0.03018    0.00120      0.05813      0.00842      0.00140      0.05773      0.01041      
7800    0.10482    0.01364    0.03017    0.00120      0.05813      0.00841      0.00140      0.05773      0.01042      
7900    0.10481    0.01364    0.03017    0.00123      0.05810      0.00835      0.00144      0.05769      0.01036      
8000    0.10482    0.01363    0.03016    0.00120      0.05813      0.00846      0.00140      0.05772      0.01048      
8100    0.10479    0.01363    0.03016    0.00119      0.05813      0.00838      0.00140      0.05771      0.01041      
8200    0.10480    0.01363    0.03015    0.00120      0.05813      0.00836      0.00141      0.05771      0.01036      
8300    0.10477    0.01362    0.03015    0.00120      0.05812      0.00838      0.00141      0.05771      0.01042      
8400    0.10477    0.01362    0.03015    0.00120      0.05813      0.00835      0.00139      0.05772      0.01036      
8500    0.10474    0.01360    0.03014    0.00119      0.05812      0.00842      0.00139      0.05769      0.01048      
8600    0.10473    0.01360    0.03013    0.00118      0.05814      0.00841      0.00137      0.05772      0.01048      
8700    0.10472    0.01360    0.03013    0.00119      0.05812      0.00841      0.00139      0.05770      0.01043      
8800    0.10471    0.01359    0.03013    0.00120      0.05812      0.00833      0.00140      0.05772      0.01037      
8900    0.10470    0.01359    0.03013    0.00119      0.05812      0.00837      0.00139      0.05772      0.01042      
9000    0.10469    0.01357    0.03012    0.00119      0.05813      0.00838      0.00138      0.05772      0.01042      
9100    0.10468    0.01357    0.03012    0.00119      0.05813      0.00839      0.00138      0.05773      0.01047      
9200    0.10468    0.01357    0.03011    0.00118      0.05814      0.00838      0.00138      0.05773      0.01042      
9300    0.10467    0.01356    0.03011    0.00120      0.05813      0.00839      0.00140      0.05773      0.01044      
9400    0.10466    0.01355    0.03010    0.00119      0.05814      0.00837      0.00139      0.05773      0.01040      
9500    0.10465    0.01355    0.03010    0.00118      0.05815      0.00839      0.00137      0.05773      0.01039      
9600    0.10464    0.01356    0.03009    0.00119      0.05812      0.00836      0.00139      0.05771      0.01042      
9700    0.10463    0.01355    0.03009    0.00120      0.05812      0.00838      0.00140      0.05771      0.01046      
9800    0.10463    0.01355    0.03009    0.00120      0.05811      0.00838      0.00140      0.05772      0.01044      
9900    0.10459    0.01353    0.03008    0.00119      0.05811      0.00842      0.00139      0.05769      0.01048      
10000   0.10460    0.01354    0.03008    0.00119      0.05812      0.00842      0.00138      0.05770      0.01046      
10100   0.10457    0.01351    0.03007    0.00119      0.05811      0.00842      0.00139      0.05770      0.01048      
10200   0.10455    0.01350    0.03006    0.00117      0.05814      0.00840      0.00137      0.05773      0.01045      
10300   0.10454    0.01349    0.03006    0.00118      0.05812      0.00842      0.00138      0.05771      0.01047      
10400   0.10454    0.01349    0.03006    0.00120      0.05812      0.00834      0.00140      0.05771      0.01035      
10500   0.10453    0.01348    0.03006    0.00118      0.05812      0.00839      0.00138      0.05771      0.01043      
10600   0.10453    0.01349    0.03005    0.00119      0.05813      0.00836      0.00138      0.05771      0.01040      
10700   0.10453    0.01348    0.03005    0.00118      0.05814      0.00836      0.00137      0.05772      0.01040      
10800   0.10451    0.01347    0.03005    0.00120      0.05811      0.00840      0.00140      0.05769      0.01046      
10900   0.10452    0.01348    0.03004    0.00120      0.05812      0.00839      0.00140      0.05770      0.01042      
11000   0.10450    0.01347    0.03004    0.00120      0.05812      0.00839      0.00140      0.05770      0.01044      
11100   0.10450    0.01347    0.03003    0.00119      0.05811      0.00843      0.00139      0.05771      0.01050      
11200   0.10449    0.01347    0.03003    0.00118      0.05813      0.00843      0.00138      0.05773      0.01046      
11300   0.10447    0.01345    0.03003    0.00120      0.05812      0.00839      0.00140      0.05772      0.01040      
11400   0.10445    0.01344    0.03002    0.00120      0.05811      0.00834      0.00141      0.05771      0.01035      
11500   0.10443    0.01344    0.03002    0.00120      0.05811      0.00839      0.00140      0.05770      0.01043      
11600   0.10443    0.01344    0.03001    0.00119      0.05811      0.00835      0.00139      0.05772      0.01038      
11700   0.10442    0.01343    0.03001    0.00118      0.05813      0.00833      0.00137      0.05774      0.01035      
11800   0.10440    0.01342    0.03000    0.00120      0.05811      0.00834      0.00140      0.05771      0.01037      
11900   0.10439    0.01342    0.03000    0.00118      0.05812      0.00839      0.00138      0.05772      0.01042      
12000   0.10439    0.01342    0.03000    0.00119      0.05813      0.00833      0.00138      0.05773      0.01038      
12100   0.10437    0.01340    0.02999    0.00119      0.05813      0.00833      0.00137      0.05772      0.01035      
12200   0.10436    0.01340    0.02999    0.00119      0.05811      0.00837      0.00139      0.05770      0.01042      
12300   0.10435    0.01340    0.02998    0.00118      0.05811      0.00843      0.00137      0.05772      0.01051      
12400   0.10435    0.01341    0.02998    0.00120      0.05810      0.00833      0.00140      0.05770      0.01035      
12500   0.10434    0.01340    0.02998    0.00120      0.05811      0.00832      0.00141      0.05771      0.01033      
12600   0.10434    0.01340    0.02997    0.00117      0.05811      0.00842      0.00137      0.05771      0.01049      
12700   0.10433    0.01339    0.02997    0.00118      0.05812      0.00832      0.00138      0.05772      0.01036      
12800   0.10432    0.01338    0.02996    0.00118      0.05813      0.00835      0.00138      0.05773      0.01036      
12900   0.10432    0.01338    0.02996    0.00119      0.05812      0.00834      0.00139      0.05773      0.01038      
13000   0.10430    0.01337    0.02996    0.00119      0.05811      0.00834      0.00140      0.05771      0.01035      
13100   0.10429    0.01337    0.02995    0.00119      0.05810      0.00837      0.00140      0.05772      0.01043      
13200   0.10428    0.01337    0.02994    0.00118      0.05812      0.00834      0.00138      0.05772      0.01037      
13300   0.10429    0.01337    0.02994    0.00119      0.05811      0.00838      0.00138      0.05771      0.01043      
13400   0.10428    0.01336    0.02994    0.00118      0.05812      0.00832      0.00139      0.05772      0.01034      
13500   0.10428    0.01336    0.02994    0.00119      0.05812      0.00833      0.00139      0.05772      0.01037      
13600   0.10424    0.01335    0.02994    0.00118      0.05811      0.00836      0.00138      0.05771      0.01038      
13700   0.10423    0.01334    0.02993    0.00120      0.05809      0.00831      0.00141      0.05769      0.01034      
13800   0.10423    0.01334    0.02993    0.00118      0.05810      0.00840      0.00139      0.05770      0.01042      
13900   0.10422    0.01334    0.02992    0.00118      0.05810      0.00837      0.00138      0.05770      0.01039      
14000   0.10421    0.01333    0.02992    0.00120      0.05809      0.00834      0.00140      0.05769      0.01037      
14100   0.10419    0.01333    0.02991    0.00119      0.05808      0.00837      0.00140      0.05768      0.01041      
14200   0.10418    0.01332    0.02991    0.00119      0.05809      0.00835      0.00139      0.05768      0.01036      
14300   0.10417    0.01332    0.02991    0.00119      0.05808      0.00838      0.00140      0.05769      0.01041      
14400   0.10416    0.01331    0.02990    0.00118      0.05809      0.00837      0.00138      0.05769      0.01040      
14500   0.10415    0.01330    0.02990    0.00119      0.05810      0.00832      0.00139      0.05769      0.01031      
14600   0.10414    0.01329    0.02990    0.00120      0.05809      0.00832      0.00140      0.05768      0.01033      
14700   0.10411    0.01328    0.02989    0.00117      0.05811      0.00833      0.00137      0.05771      0.01033      
14800   0.10410    0.01327    0.02988    0.00118      0.05809      0.00841      0.00138      0.05769      0.01043      
14900   0.10409    0.01326    0.02987    0.00119      0.05809      0.00836      0.00141      0.05768      0.01036      
15000   0.10409    0.01325    0.02988    0.00120      0.05809      0.00836      0.00140      0.05768      0.01036      
15100   0.10405    0.01324    0.02986    0.00118      0.05809      0.00837      0.00139      0.05768      0.01038      
15200   0.10405    0.01324    0.02986    0.00118      0.05809      0.00836      0.00139      0.05768      0.01037      
15300   0.10405    0.01325    0.02986    0.00119      0.05808      0.00838      0.00139      0.05769      0.01040      
15400   0.10404    0.01324    0.02985    0.00119      0.05809      0.00839      0.00139      0.05768      0.01042      
15500   0.10404    0.01324    0.02985    0.00119      0.05809      0.00839      0.00139      0.05768      0.01041      
15600   0.10401    0.01323    0.02984    0.00117      0.05809      0.00839      0.00138      0.05769      0.01040      
15700   0.10401    0.01324    0.02984    0.00119      0.05807      0.00839      0.00140      0.05767      0.01040      
15800   0.10400    0.01323    0.02983    0.00117      0.05809      0.00839      0.00136      0.05770      0.01040      
15900   0.10401    0.01324    0.02983    0.00119      0.05807      0.00839      0.00139      0.05768      0.01039      
16000   0.10399    0.01322    0.02983    0.00118      0.05808      0.00840      0.00139      0.05768      0.01043      
16100   0.10398    0.01321    0.02982    0.00118      0.05808      0.00843      0.00138      0.05768      0.01048      
16200   0.10396    0.01322    0.02981    0.00118      0.05807      0.00841      0.00139      0.05767      0.01043      
16300   0.10395    0.01321    0.02981    0.00118      0.05808      0.00840      0.00137      0.05767      0.01038      
16400   0.10394    0.01321    0.02980    0.00119      0.05806      0.00839      0.00139      0.05766      0.01041      
16500   0.10394    0.01320    0.02980    0.00118      0.05809      0.00833      0.00139      0.05769      0.01035      
16600   0.10392    0.01319    0.02979    0.00118      0.05809      0.00838      0.00138      0.05768      0.01041      
16700   0.10392    0.01320    0.02979    0.00119      0.05806      0.00840      0.00139      0.05767      0.01045      
16800   0.10392    0.01320    0.02979    0.00117      0.05809      0.00837      0.00138      0.05768      0.01040      
16900   0.10390    0.01318    0.02978    0.00120      0.05806      0.00841      0.00140      0.05766      0.01043      
17000   0.10389    0.01318    0.02978    0.00120      0.05806      0.00836      0.00140      0.05765      0.01038      
17100   0.10389    0.01318    0.02978    0.00120      0.05806      0.00836      0.00141      0.05766      0.01037      
17200   0.10387    0.01318    0.02977    0.00118      0.05806      0.00842      0.00138      0.05766      0.01043      
17300   0.10386    0.01317    0.02976    0.00119      0.05806      0.00836      0.00139      0.05766      0.01040      
17400   0.10385    0.01317    0.02976    0.00119      0.05805      0.00840      0.00139      0.05765      0.01045      
17500   0.10383    0.01316    0.02975    0.00119      0.05806      0.00834      0.00140      0.05767      0.01032      
17600   0.10383    0.01316    0.02975    0.00118      0.05807      0.00834      0.00138      0.05769      0.01035      
17700   0.10382    0.01315    0.02975    0.00121      0.05804      0.00839      0.00142      0.05766      0.01041      
17800   0.10382    0.01314    0.02975    0.00119      0.05805      0.00842      0.00139      0.05765      0.01045      
17900   0.10381    0.01314    0.02974    0.00118      0.05806      0.00841      0.00139      0.05767      0.01046      
18000   0.10380    0.01314    0.02974    0.00121      0.05804      0.00839      0.00142      0.05765      0.01043      
18100   0.10380    0.01313    0.02974    0.00119      0.05807      0.00841      0.00139      0.05768      0.01047      
18200   0.10380    0.01312    0.02973    0.00118      0.05807      0.00843      0.00139      0.05768      0.01048      
18300   0.10378    0.01312    0.02973    0.00119      0.05806      0.00842      0.00140      0.05768      0.01048      
18400   0.10378    0.01311    0.02973    0.00119      0.05806      0.00844      0.00140      0.05767      0.01047      
18500   0.10378    0.01311    0.02973    0.00118      0.05808      0.00841      0.00139      0.05768      0.01047      
18600   0.10377    0.01310    0.02972    0.00118      0.05809      0.00837      0.00138      0.05769      0.01042      
18700   0.10377    0.01311    0.02972    0.00119      0.05808      0.00839      0.00139      0.05768      0.01042      
18800   0.10376    0.01311    0.02971    0.00121      0.05806      0.00838      0.00141      0.05767      0.01042      
18900   0.10375    0.01311    0.02971    0.00120      0.05806      0.00838      0.00142      0.05767      0.01042      
19000   0.10375    0.01311    0.02970    0.00120      0.05805      0.00844      0.00140      0.05767      0.01050      
19100   0.10374    0.01311    0.02970    0.00119      0.05806      0.00840      0.00139      0.05767      0.01044      
19200   0.10372    0.01309    0.02969    0.00119      0.05807      0.00841      0.00139      0.05768      0.01046      
19300   0.10371    0.01308    0.02969    0.00119      0.05808      0.00837      0.00139      0.05769      0.01041      
19400   0.10369    0.01307    0.02969    0.00119      0.05807      0.00839      0.00139      0.05768      0.01043      
19500   0.10367    0.01306    0.02968    0.00119      0.05806      0.00839      0.00140      0.05767      0.01043      
19600   0.10367    0.01305    0.02968    0.00119      0.05806      0.00840      0.00140      0.05767      0.01043      
19700   0.10366    0.01305    0.02968    0.00119      0.05806      0.00838      0.00140      0.05767      0.01042      
19800   0.10364    0.01305    0.02967    0.00119      0.05807      0.00837      0.00139      0.05768      0.01042      
19900   0.10363    0.01304    0.02966    0.00117      0.05808      0.00836      0.00137      0.05769      0.01039      
20000   0.10361    0.01304    0.02966    0.00118      0.05806      0.00837      0.00139      0.05767      0.01041      
20100   0.10362    0.01304    0.02965    0.00119      0.05806      0.00839      0.00140      0.05766      0.01042      
20200   0.10361    0.01304    0.02965    0.00119      0.05807      0.00835      0.00139      0.05767      0.01037      
20300   0.10361    0.01303    0.02965    0.00118      0.05808      0.00835      0.00138      0.05768      0.01037      
20400   0.10360    0.01302    0.02965    0.00119      0.05806      0.00839      0.00140      0.05767      0.01044      
20500   0.10359    0.01302    0.02964    0.00119      0.05808      0.00833      0.00140      0.05768      0.01037      
20600   0.10358    0.01301    0.02964    0.00119      0.05806      0.00837      0.00139      0.05767      0.01041      
20700   0.10356    0.01300    0.02963    0.00120      0.05805      0.00837      0.00140      0.05766      0.01041      
20800   0.10356    0.01300    0.02963    0.00119      0.05806      0.00838      0.00140      0.05766      0.01044      
20900   0.10355    0.01299    0.02963    0.00119      0.05806      0.00837      0.00140      0.05766      0.01043      
21000   0.10353    0.01298    0.02962    0.00120      0.05806      0.00837      0.00140      0.05766      0.01040      
21100   0.10354    0.01298    0.02962    0.00118      0.05807      0.00839      0.00139      0.05767      0.01044      
21200   0.10352    0.01297    0.02961    0.00118      0.05808      0.00836      0.00139      0.05767      0.01038      
21300   0.10352    0.01298    0.02961    0.00118      0.05807      0.00838      0.00139      0.05767      0.01043      
21400   0.10350    0.01297    0.02960    0.00119      0.05807      0.00836      0.00139      0.05767      0.01038      
21500   0.10350    0.01296    0.02960    0.00118      0.05808      0.00837      0.00138      0.05768      0.01041      
21600   0.10349    0.01297    0.02960    0.00119      0.05806      0.00835      0.00140      0.05767      0.01039      
21700   0.10348    0.01296    0.02959    0.00121      0.05804      0.00838      0.00142      0.05765      0.01041      
21800   0.10346    0.01295    0.02958    0.00121      0.05804      0.00837      0.00142      0.05764      0.01042      
21900   0.10346    0.01295    0.02958    0.00120      0.05806      0.00834      0.00141      0.05767      0.01035      
22000   0.10345    0.01295    0.02957    0.00119      0.05806      0.00842      0.00140      0.05766      0.01043      
22100   0.10344    0.01295    0.02957    0.00118      0.05806      0.00840      0.00139      0.05768      0.01043      
22200   0.10343    0.01295    0.02956    0.00119      0.05805      0.00839      0.00140      0.05765      0.01043      
22300   0.10342    0.01294    0.02955    0.00119      0.05806      0.00838      0.00140      0.05767      0.01042      
22400   0.10342    0.01295    0.02955    0.00118      0.05806      0.00839      0.00138      0.05768      0.01043      
22500   0.10340    0.01294    0.02955    0.00118      0.05806      0.00835      0.00138      0.05767      0.01037      
22600   0.10339    0.01293    0.02954    0.00118      0.05806      0.00840      0.00138      0.05767      0.01042      
22700   0.10338    0.01293    0.02954    0.00119      0.05805      0.00837      0.00138      0.05766      0.01040      
22800   0.10337    0.01292    0.02954    0.00118      0.05806      0.00836      0.00138      0.05767      0.01038      
22900   0.10338    0.01292    0.02954    0.00119      0.05806      0.00836      0.00138      0.05767      0.01040      
23000   0.10334    0.01291    0.02953    0.00118      0.05807      0.00832      0.00137      0.05768      0.01032      
23100   0.10335    0.01291    0.02953    0.00119      0.05804      0.00838      0.00140      0.05765      0.01040      
23200   0.10333    0.01290    0.02952    0.00118      0.05806      0.00835      0.00138      0.05766      0.01037      
23300   0.10332    0.01289    0.02952    0.00118      0.05806      0.00837      0.00139      0.05766      0.01040      
23400   0.10332    0.01289    0.02951    0.00120      0.05804      0.00840      0.00141      0.05764      0.01043      
23500   0.10331    0.01289    0.02951    0.00119      0.05804      0.00839      0.00140      0.05765      0.01044      
23600   0.10331    0.01289    0.02951    0.00120      0.05804      0.00839      0.00140      0.05765      0.01044      
23700   0.10330    0.01289    0.02950    0.00119      0.05805      0.00837      0.00139      0.05766      0.01040      
23800   0.10328    0.01289    0.02950    0.00118      0.05804      0.00839      0.00139      0.05764      0.01044      
23900   0.10328    0.01288    0.02949    0.00118      0.05805      0.00837      0.00139      0.05765      0.01039      
24000   0.10325    0.01286    0.02949    0.00119      0.05803      0.00840      0.00140      0.05764      0.01042      
24100   0.10324    0.01285    0.02949    0.00119      0.05804      0.00834      0.00140      0.05764      0.01032      
24200   0.10323    0.01285    0.02948    0.00118      0.05803      0.00839      0.00139      0.05763      0.01040      
24300   0.10323    0.01285    0.02948    0.00119      0.05802      0.00841      0.00140      0.05762      0.01043      
24400   0.10322    0.01286    0.02947    0.00119      0.05802      0.00836      0.00139      0.05763      0.01037      
24500   0.10321    0.01285    0.02947    0.00119      0.05803      0.00838      0.00139      0.05764      0.01039      
24600   0.10320    0.01285    0.02947    0.00120      0.05802      0.00836      0.00140      0.05763      0.01038      
24700   0.10320    0.01284    0.02946    0.00118      0.05804      0.00839      0.00138      0.05765      0.01042      
24800   0.10318    0.01283    0.02946    0.00120      0.05803      0.00837      0.00141      0.05764      0.01038      
24900   0.10318    0.01283    0.02946    0.00119      0.05802      0.00839      0.00140      0.05764      0.01042      
25000   0.10316    0.01282    0.02945    0.00120      0.05801      0.00839      0.00141      0.05762      0.01041      
25100   0.10315    0.01282    0.02945    0.00118      0.05804      0.00837      0.00138      0.05765      0.01039      
25200   0.10315    0.01282    0.02944    0.00119      0.05802      0.00842      0.00139      0.05763      0.01045      
25300   0.10315    0.01281    0.02944    0.00119      0.05803      0.00838      0.00139      0.05765      0.01039      
25400   0.10313    0.01281    0.02944    0.00118      0.05804      0.00835      0.00138      0.05764      0.01036      
25500   0.10314    0.01281    0.02944    0.00120      0.05802      0.00835      0.00140      0.05763      0.01038      
25600   0.10313    0.01281    0.02943    0.00119      0.05802      0.00841      0.00140      0.05762      0.01045      
25700   0.10312    0.01280    0.02943    0.00118      0.05804      0.00839      0.00138      0.05765      0.01042      
25800   0.10312    0.01280    0.02942    0.00117      0.05804      0.00841      0.00138      0.05765      0.01045      
25900   0.10310    0.01279    0.02942    0.00118      0.05803      0.00840      0.00139      0.05764      0.01042      
26000   0.10309    0.01279    0.02941    0.00119      0.05802      0.00838      0.00140      0.05763      0.01042      
26100   0.10308    0.01279    0.02941    0.00118      0.05802      0.00840      0.00139      0.05763      0.01043      
26200   0.10308    0.01278    0.02940    0.00119      0.05803      0.00838      0.00139      0.05763      0.01041      
26300   0.10306    0.01278    0.02940    0.00118      0.05803      0.00838      0.00138      0.05763      0.01043      
26400   0.10305    0.01277    0.02939    0.00117      0.05803      0.00840      0.00137      0.05765      0.01044      
26500   0.10305    0.01277    0.02939    0.00118      0.05804      0.00836      0.00139      0.05765      0.01039      
26600   0.10305    0.01276    0.02939    0.00118      0.05805      0.00837      0.00137      0.05765      0.01038      
26700   0.10305    0.01277    0.02938    0.00118      0.05803      0.00840      0.00139      0.05764      0.01044      
26800   0.10303    0.01276    0.02938    0.00118      0.05804      0.00838      0.00138      0.05764      0.01044      
26900   0.10302    0.01276    0.02938    0.00117      0.05804      0.00839      0.00137      0.05764      0.01041      
27000   0.10300    0.01275    0.02937    0.00119      0.05802      0.00837      0.00140      0.05763      0.01039      
27100   0.10299    0.01274    0.02937    0.00117      0.05804      0.00837      0.00138      0.05765      0.01040      
27200   0.10298    0.01273    0.02936    0.00119      0.05802      0.00837      0.00140      0.05763      0.01041      
27300   0.10298    0.01273    0.02936    0.00118      0.05803      0.00843      0.00138      0.05764      0.01049      
27400   0.10297    0.01273    0.02936    0.00118      0.05803      0.00838      0.00138      0.05764      0.01043      
27500   0.10295    0.01273    0.02935    0.00117      0.05804      0.00835      0.00137      0.05764      0.01036      
27600   0.10295    0.01272    0.02935    0.00117      0.05803      0.00839      0.00137      0.05765      0.01044      
27700   0.10295    0.01273    0.02934    0.00119      0.05802      0.00836      0.00139      0.05764      0.01038      
27800   0.10293    0.01271    0.02934    0.00118      0.05803      0.00835      0.00138      0.05764      0.01038      
27900   0.10292    0.01272    0.02933    0.00118      0.05802      0.00837      0.00139      0.05763      0.01039      
28000   0.10292    0.01271    0.02933    0.00118      0.05802      0.00840      0.00139      0.05763      0.01042      
28100   0.10291    0.01271    0.02932    0.00119      0.05801      0.00841      0.00139      0.05763      0.01043      
28200   0.10290    0.01270    0.02932    0.00119      0.05801      0.00836      0.00140      0.05764      0.01038      
28300   0.10289    0.01270    0.02931    0.00118      0.05802      0.00836      0.00139      0.05763      0.01039      
28400   0.10288    0.01270    0.02931    0.00118      0.05802      0.00834      0.00139      0.05764      0.01035      
28500   0.10288    0.01269    0.02931    0.00118      0.05803      0.00835      0.00138      0.05765      0.01038      
28600   0.10288    0.01268    0.02931    0.00118      0.05803      0.00839      0.00138      0.05765      0.01043      
28700   0.10286    0.01268    0.02930    0.00117      0.05803      0.00839      0.00137      0.05764      0.01042      
28800   0.10285    0.01268    0.02930    0.00118      0.05801      0.00840      0.00139      0.05763      0.01044      
28900   0.10284    0.01268    0.02929    0.00117      0.05802      0.00837      0.00137      0.05763      0.01040      
29000   0.10282    0.01266    0.02929    0.00117      0.05803      0.00836      0.00137      0.05763      0.01039      
29100   0.10283    0.01266    0.02929    0.00117      0.05803      0.00836      0.00137      0.05764      0.01038      
29200   0.10282    0.01266    0.02928    0.00116      0.05804      0.00834      0.00136      0.05765      0.01033      
29300   0.10281    0.01266    0.02928    0.00117      0.05802      0.00836      0.00137      0.05763      0.01038      
29400   0.10281    0.01266    0.02928    0.00118      0.05802      0.00839      0.00138      0.05763      0.01044      
29500   0.10280    0.01266    0.02927    0.00118      0.05802      0.00837      0.00138      0.05763      0.01039      
29600   0.10280    0.01266    0.02927    0.00118      0.05800      0.00842      0.00139      0.05761      0.01045      
29700   0.10278    0.01266    0.02927    0.00119      0.05800      0.00839      0.00139      0.05761      0.01041      
29800   0.10277    0.01265    0.02926    0.00118      0.05800      0.00840      0.00139      0.05762      0.01042      
29900   0.10277    0.01264    0.02926    0.00117      0.05801      0.00840      0.00138      0.05762      0.01042      
30000   0.10276    0.01265    0.02925    0.00119      0.05800      0.00837      0.00140      0.05761      0.01038      
30100   0.10276    0.01264    0.02925    0.00118      0.05800      0.00839      0.00140      0.05761      0.01041      
30200   0.10274    0.01264    0.02924    0.00118      0.05800      0.00837      0.00139      0.05761      0.01038      
30300   0.10273    0.01263    0.02924    0.00118      0.05802      0.00835      0.00138      0.05763      0.01035      
30400   0.10271    0.01262    0.02924    0.00119      0.05800      0.00836      0.00140      0.05762      0.01037      
30500   0.10271    0.01262    0.02923    0.00118      0.05800      0.00833      0.00139      0.05762      0.01032      
30600   0.10270    0.01261    0.02923    0.00120      0.05799      0.00835      0.00142      0.05761      0.01035      
30700   0.10270    0.01261    0.02922    0.00118      0.05802      0.00831      0.00139      0.05763      0.01031      
30800   0.10267    0.01260    0.02922    0.00118      0.05801      0.00832      0.00139      0.05762      0.01031      
30900   0.10268    0.01260    0.02922    0.00118      0.05801      0.00835      0.00138      0.05762      0.01037      
31000   0.10266    0.01259    0.02921    0.00118      0.05801      0.00834      0.00138      0.05762      0.01037      
31100   0.10266    0.01259    0.02921    0.00118      0.05801      0.00831      0.00139      0.05762      0.01031      
31200   0.10265    0.01259    0.02920    0.00118      0.05801      0.00834      0.00139      0.05762      0.01034      
31300   0.10265    0.01259    0.02920    0.00118      0.05802      0.00831      0.00139      0.05763      0.01031      
31400   0.10264    0.01258    0.02920    0.00119      0.05801      0.00832      0.00140      0.05761      0.01033      
31500   0.10264    0.01258    0.02919    0.00120      0.05800      0.00834      0.00141      0.05760      0.01036      
31600   0.10263    0.01258    0.02919    0.00119      0.05801      0.00834      0.00140      0.05761      0.01037      
31700   0.10262    0.01258    0.02918    0.00118      0.05801      0.00837      0.00139      0.05761      0.01038      
31800   0.10262    0.01257    0.02918    0.00119      0.05800      0.00837      0.00140      0.05761      0.01041      
31900   0.10260    0.01257    0.02918    0.00119      0.05801      0.00832      0.00139      0.05761      0.01033      
32000   0.10260    0.01257    0.02917    0.00119      0.05800      0.00832      0.00140      0.05761      0.01031      
32100   0.10259    0.01257    0.02917    0.00118      0.05801      0.00836      0.00139      0.05760      0.01038      
32200   0.10259    0.01257    0.02916    0.00118      0.05801      0.00834      0.00140      0.05762      0.01036      
32300   0.10258    0.01256    0.02916    0.00119      0.05801      0.00830      0.00140      0.05762      0.01029      
32400   0.10256    0.01255    0.02916    0.00119      0.05801      0.00831      0.00140      0.05762      0.01029      
32500   0.10255    0.01255    0.02915    0.00119      0.05800      0.00829      0.00141      0.05762      0.01027      
32600   0.10256    0.01255    0.02915    0.00120      0.05800      0.00832      0.00142      0.05761      0.01030      
32700   0.10255    0.01255    0.02914    0.00119      0.05800      0.00835      0.00140      0.05762      0.01036      
32800   0.10254    0.01254    0.02914    0.00120      0.05800      0.00835      0.00141      0.05761      0.01035      
32900   0.10253    0.01254    0.02913    0.00118      0.05801      0.00837      0.00139      0.05762      0.01036      
33000   0.10254    0.01254    0.02913    0.00120      0.05799      0.00836      0.00141      0.05761      0.01037      
33100   0.10252    0.01253    0.02912    0.00118      0.05801      0.00834      0.00139      0.05762      0.01035      
33200   0.10251    0.01253    0.02912    0.00117      0.05802      0.00833      0.00138      0.05763      0.01034      
33300   0.10250    0.01252    0.02912    0.00119      0.05800      0.00835      0.00140      0.05761      0.01037      
33400   0.10249    0.01252    0.02911    0.00119      0.05801      0.00830      0.00139      0.05762      0.01030      
33500   0.10248    0.01252    0.02911    0.00119      0.05800      0.00833      0.00140      0.05761      0.01033      
33600   0.10248    0.01251    0.02910    0.00118      0.05801      0.00834      0.00139      0.05763      0.01036      
33700   0.10247    0.01251    0.02910    0.00119      0.05800      0.00832      0.00140      0.05761      0.01033      
33800   0.10246    0.01251    0.02909    0.00119      0.05800      0.00831      0.00139      0.05761      0.01031      
33900   0.10245    0.01250    0.02909    0.00118      0.05801      0.00829      0.00139      0.05762      0.01030      
34000   0.10245    0.01250    0.02909    0.00119      0.05801      0.00833      0.00139      0.05761      0.01036      
34100   0.10244    0.01250    0.02908    0.00119      0.05800      0.00829      0.00140      0.05762      0.01030      
34200   0.10242    0.01249    0.02908    0.00119      0.05799      0.00832      0.00141      0.05760      0.01032      
34300   0.10241    0.01249    0.02908    0.00119      0.05799      0.00832      0.00140      0.05759      0.01033      
34400   0.10240    0.01248    0.02907    0.00119      0.05799      0.00834      0.00140      0.05760      0.01038      
34500   0.10239    0.01247    0.02907    0.00120      0.05799      0.00831      0.00140      0.05759      0.01032      
34600   0.10238    0.01247    0.02907    0.00120      0.05799      0.00830      0.00141      0.05759      0.01030      
34700   0.10239    0.01246    0.02906    0.00120      0.05800      0.00832      0.00141      0.05759      0.01033      
34800   0.10238    0.01247    0.02906    0.00119      0.05799      0.00834      0.00140      0.05760      0.01035      
34900   0.10238    0.01246    0.02906    0.00118      0.05800      0.00837      0.00139      0.05760      0.01039      
35000   0.10238    0.01246    0.02906    0.00119      0.05801      0.00833      0.00140      0.05762      0.01033      
35100   0.10237    0.01246    0.02905    0.00119      0.05800      0.00833      0.00140      0.05761      0.01033      
35200   0.10236    0.01246    0.02905    0.00118      0.05800      0.00833      0.00139      0.05761      0.01034      
35300   0.10235    0.01245    0.02904    0.00119      0.05799      0.00833      0.00140      0.05760      0.01036      
35400   0.10234    0.01244    0.02904    0.00118      0.05801      0.00832      0.00139      0.05761      0.01032      
35500   0.10233    0.01244    0.02904    0.00118      0.05800      0.00833      0.00139      0.05762      0.01035      
35600   0.10232    0.01243    0.02903    0.00119      0.05799      0.00835      0.00139      0.05760      0.01037      
35700   0.10231    0.01243    0.02903    0.00118      0.05799      0.00835      0.00139      0.05761      0.01036      
35800   0.10230    0.01243    0.02902    0.00119      0.05799      0.00833      0.00140      0.05760      0.01033      
35900   0.10230    0.01243    0.02902    0.00118      0.05800      0.00831      0.00139      0.05762      0.01032      
36000   0.10230    0.01243    0.02902    0.00117      0.05801      0.00836      0.00138      0.05763      0.01037      
36100   0.10229    0.01244    0.02902    0.00118      0.05800      0.00832      0.00139      0.05762      0.01032      
36200   0.10228    0.01242    0.02901    0.00119      0.05799      0.00831      0.00140      0.05762      0.01031      
36300   0.10228    0.01242    0.02901    0.00119      0.05799      0.00834      0.00140      0.05761      0.01036      
36400   0.10227    0.01241    0.02901    0.00120      0.05798      0.00833      0.00140      0.05760      0.01034      
36500   0.10226    0.01241    0.02900    0.00119      0.05799      0.00833      0.00139      0.05761      0.01032      
36600   0.10225    0.01241    0.02900    0.00119      0.05798      0.00833      0.00141      0.05760      0.01033      
36700   0.10223    0.01240    0.02900    0.00119      0.05799      0.00834      0.00139      0.05760      0.01034      
36800   0.10222    0.01240    0.02899    0.00119      0.05798      0.00832      0.00140      0.05760      0.01033      
36900   0.10223    0.01240    0.02899    0.00118      0.05799      0.00832      0.00139      0.05760      0.01034      
37000   0.10222    0.01240    0.02899    0.00119      0.05797      0.00832      0.00140      0.05759      0.01034      
37100   0.10221    0.01239    0.02898    0.00119      0.05798      0.00835      0.00140      0.05759      0.01036      
37200   0.10220    0.01239    0.02898    0.00119      0.05798      0.00829      0.00140      0.05759      0.01029      
37300   0.10220    0.01239    0.02898    0.00118      0.05799      0.00832      0.00139      0.05759      0.01030      
37400   0.10218    0.01238    0.02897    0.00119      0.05798      0.00832      0.00140      0.05758      0.01031      
37500   0.10217    0.01238    0.02897    0.00118      0.05797      0.00834      0.00139      0.05758      0.01034      
37600   0.10217    0.01237    0.02897    0.00120      0.05797      0.00831      0.00141      0.05758      0.01032      
37700   0.10217    0.01237    0.02896    0.00120      0.05797      0.00834      0.00141      0.05757      0.01036      
37800   0.10216    0.01237    0.02896    0.00118      0.05798      0.00834      0.00139      0.05758      0.01033      
37900   0.10215    0.01236    0.02896    0.00119      0.05797      0.00834      0.00140      0.05758      0.01035      
38000   0.10214    0.01236    0.02895    0.00119      0.05798      0.00831      0.00140      0.05759      0.01031      
38100   0.10214    0.01235    0.02895    0.00119      0.05797      0.00834      0.00141      0.05758      0.01035      
38200   0.10213    0.01235    0.02895    0.00120      0.05797      0.00831      0.00141      0.05758      0.01030      
38300   0.10212    0.01234    0.02894    0.00119      0.05798      0.00832      0.00140      0.05758      0.01032      
38400   0.10211    0.01234    0.02894    0.00119      0.05799      0.00830      0.00139      0.05759      0.01030      
38500   0.10210    0.01234    0.02893    0.00119      0.05798      0.00832      0.00140      0.05758      0.01031      
38600   0.10210    0.01234    0.02893    0.00119      0.05798      0.00832      0.00140      0.05758      0.01033      
38700   0.10209    0.01233    0.02893    0.00120      0.05797      0.00831      0.00141      0.05758      0.01030      
38800   0.10208    0.01233    0.02892    0.00119      0.05798      0.00829      0.00140      0.05759      0.01028      
38900   0.10207    0.01232    0.02892    0.00119      0.05798      0.00831      0.00140      0.05759      0.01030      
39000   0.10206    0.01232    0.02892    0.00120      0.05798      0.00828      0.00141      0.05759      0.01025      
39100   0.10206    0.01232    0.02891    0.00118      0.05798      0.00830      0.00139      0.05759      0.01028      
39200   0.10205    0.01231    0.02891    0.00119      0.05798      0.00829      0.00140      0.05758      0.01027      
39300   0.10205    0.01231    0.02891    0.00118      0.05798      0.00830      0.00139      0.05759      0.01028      
39400   0.10204    0.01231    0.02890    0.00119      0.05798      0.00831      0.00140      0.05759      0.01028      
39500   0.10204    0.01231    0.02890    0.00119      0.05798      0.00831      0.00140      0.05758      0.01028      
39600   0.10202    0.01230    0.02889    0.00120      0.05796      0.00832      0.00141      0.05758      0.01030      
39700   0.10202    0.01230    0.02889    0.00119      0.05798      0.00829      0.00140      0.05759      0.01026      
39800   0.10201    0.01229    0.02889    0.00118      0.05797      0.00833      0.00139      0.05758      0.01032      
39900   0.10200    0.01229    0.02889    0.00119      0.05796      0.00833      0.00140      0.05757      0.01033      
40000   0.10199    0.01229    0.02889    0.00119      0.05797      0.00832      0.00140      0.05758      0.01028      
40100   0.10198    0.01228    0.02888    0.00118      0.05798      0.00832      0.00139      0.05759      0.01032      
40200   0.10197    0.01228    0.02887    0.00119      0.05797      0.00830      0.00140      0.05758      0.01029      
40300   0.10197    0.01228    0.02887    0.00119      0.05797      0.00830      0.00140      0.05757      0.01029      
40400   0.10196    0.01227    0.02887    0.00120      0.05796      0.00831      0.00141      0.05757      0.01030      
40500   0.10195    0.01227    0.02886    0.00119      0.05797      0.00833      0.00140      0.05758      0.01030      
40600   0.10195    0.01227    0.02886    0.00118      0.05798      0.00830      0.00139      0.05759      0.01028      
40700   0.10195    0.01227    0.02886    0.00119      0.05797      0.00829      0.00140      0.05758      0.01027      
40800   0.10194    0.01227    0.02886    0.00119      0.05796      0.00831      0.00139      0.05758      0.01031      
40900   0.10194    0.01227    0.02885    0.00118      0.05797      0.00833      0.00139      0.05758      0.01033      
41000   0.10193    0.01226    0.02885    0.00118      0.05797      0.00832      0.00139      0.05758      0.01032      
41100   0.10192    0.01226    0.02884    0.00118      0.05797      0.00831      0.00139      0.05758      0.01031      
41200   0.10192    0.01226    0.02884    0.00118      0.05798      0.00829      0.00139      0.05758      0.01027      
41300   0.10191    0.01226    0.02884    0.00118      0.05798      0.00830      0.00138      0.05759      0.01030      
41400   0.10191    0.01225    0.02884    0.00119      0.05797      0.00831      0.00139      0.05758      0.01031      
41500   0.10190    0.01225    0.02883    0.00118      0.05797      0.00831      0.00139      0.05758      0.01031      
41600   0.10189    0.01224    0.02883    0.00118      0.05797      0.00832      0.00139      0.05758      0.01032      
41700   0.10188    0.01224    0.02883    0.00118      0.05797      0.00834      0.00138      0.05758      0.01035      
41800   0.10187    0.01223    0.02882    0.00118      0.05797      0.00831      0.00140      0.05758      0.01032      
41900   0.10186    0.01224    0.02882    0.00118      0.05796      0.00830      0.00139      0.05758      0.01030      
42000   0.10185    0.01223    0.02881    0.00118      0.05796      0.00832      0.00139      0.05759      0.01032      
42100   0.10184    0.01222    0.02881    0.00117      0.05797      0.00830      0.00138      0.05759      0.01030      
42200   0.10183    0.01222    0.02881    0.00118      0.05796      0.00832      0.00139      0.05758      0.01033      
42300   0.10183    0.01222    0.02880    0.00118      0.05797      0.00831      0.00138      0.05758      0.01033      
42400   0.10183    0.01221    0.02880    0.00119      0.05796      0.00830      0.00140      0.05757      0.01029      
42500   0.10182    0.01221    0.02880    0.00119      0.05796      0.00830      0.00140      0.05758      0.01028      
42600   0.10181    0.01220    0.02880    0.00119      0.05795      0.00832      0.00140      0.05756      0.01033      
42700   0.10180    0.01220    0.02879    0.00119      0.05795      0.00831      0.00140      0.05757      0.01032      
42800   0.10180    0.01221    0.02879    0.00119      0.05795      0.00833      0.00140      0.05757      0.01034      
42900   0.10179    0.01220    0.02879    0.00119      0.05795      0.00832      0.00140      0.05757      0.01034      
43000   0.10179    0.01220    0.02879    0.00118      0.05796      0.00832      0.00139      0.05757      0.01033      
43100   0.10179    0.01220    0.02878    0.00118      0.05796      0.00831      0.00139      0.05758      0.01032      
43200   0.10178    0.01220    0.02878    0.00119      0.05796      0.00828      0.00139      0.05758      0.01029      
43300   0.10178    0.01220    0.02878    0.00118      0.05796      0.00831      0.00139      0.05757      0.01033      
43400   0.10177    0.01220    0.02877    0.00119      0.05795      0.00831      0.00140      0.05757      0.01032      
43500   0.10176    0.01219    0.02877    0.00118      0.05796      0.00829      0.00139      0.05759      0.01029      
43600   0.10175    0.01218    0.02877    0.00118      0.05796      0.00831      0.00139      0.05758      0.01029      
43700   0.10175    0.01218    0.02876    0.00119      0.05796      0.00828      0.00140      0.05758      0.01028      
43800   0.10174    0.01218    0.02876    0.00119      0.05796      0.00825      0.00141      0.05758      0.01025      
43900   0.10173    0.01217    0.02876    0.00119      0.05796      0.00827      0.00140      0.05758      0.01027      
44000   0.10172    0.01217    0.02875    0.00118      0.05797      0.00826      0.00139      0.05759      0.01026      
44100   0.10171    0.01216    0.02875    0.00119      0.05796      0.00828      0.00140      0.05758      0.01029      
44200   0.10171    0.01216    0.02875    0.00119      0.05795      0.00826      0.00140      0.05758      0.01024      
44300   0.10169    0.01216    0.02874    0.00118      0.05796      0.00829      0.00139      0.05757      0.01030      
44400   0.10169    0.01215    0.02874    0.00120      0.05795      0.00826      0.00141      0.05757      0.01025      
44500   0.10169    0.01215    0.02874    0.00118      0.05797      0.00828      0.00139      0.05758      0.01026      
44600   0.10168    0.01215    0.02873    0.00118      0.05796      0.00827      0.00139      0.05758      0.01026      
44700   0.10168    0.01214    0.02873    0.00117      0.05797      0.00830      0.00138      0.05759      0.01030      
44800   0.10167    0.01214    0.02873    0.00119      0.05795      0.00832      0.00140      0.05757      0.01031      
44900   0.10166    0.01214    0.02872    0.00117      0.05797      0.00829      0.00138      0.05759      0.01028      
45000   0.10165    0.01213    0.02872    0.00119      0.05796      0.00828      0.00140      0.05758      0.01028      
45100   0.10165    0.01213    0.02872    0.00118      0.05796      0.00829      0.00138      0.05758      0.01028      
45200   0.10164    0.01212    0.02871    0.00118      0.05795      0.00830      0.00139      0.05757      0.01029      
45300   0.10163    0.01212    0.02871    0.00119      0.05795      0.00830      0.00140      0.05757      0.01030      
45400   0.10162    0.01211    0.02870    0.00118      0.05795      0.00831      0.00139      0.05757      0.01031      
45500   0.10161    0.01212    0.02870    0.00118      0.05796      0.00829      0.00139      0.05757      0.01028      
45600   0.10161    0.01211    0.02870    0.00117      0.05796      0.00829      0.00138      0.05758      0.01028      
45700   0.10161    0.01211    0.02870    0.00118      0.05795      0.00832      0.00139      0.05757      0.01031      
45800   0.10159    0.01211    0.02869    0.00119      0.05795      0.00828      0.00140      0.05757      0.01027      
45900   0.10159    0.01211    0.02869    0.00118      0.05796      0.00828      0.00139      0.05758      0.01027      
46000   0.10158    0.01210    0.02869    0.00118      0.05795      0.00832      0.00138      0.05757      0.01031      
46100   0.10157    0.01210    0.02868    0.00118      0.05795      0.00830      0.00139      0.05757      0.01027      
46200   0.10155    0.01209    0.02868    0.00119      0.05794      0.00830      0.00140      0.05755      0.01029      
46300   0.10155    0.01209    0.02868    0.00118      0.05794      0.00831      0.00139      0.05756      0.01030      
46400   0.10155    0.01209    0.02867    0.00119      0.05794      0.00831      0.00140      0.05755      0.01031      
46500   0.10154    0.01208    0.02867    0.00119      0.05794      0.00830      0.00140      0.05755      0.01029      
46600   0.10154    0.01209    0.02867    0.00118      0.05795      0.00831      0.00139      0.05757      0.01029      
46700   0.10153    0.01208    0.02867    0.00119      0.05794      0.00829      0.00140      0.05755      0.01026      
46800   0.10152    0.01207    0.02866    0.00117      0.05795      0.00833      0.00138      0.05757      0.01034      
46900   0.10152    0.01208    0.02866    0.00118      0.05794      0.00829      0.00139      0.05756      0.01029      
47000   0.10151    0.01207    0.02866    0.00119      0.05793      0.00829      0.00140      0.05755      0.01029      
47100   0.10151    0.01207    0.02865    0.00118      0.05794      0.00834      0.00139      0.05755      0.01034      
47200   0.10150    0.01206    0.02865    0.00119      0.05794      0.00828      0.00140      0.05755      0.01027      
47300   0.10149    0.01206    0.02865    0.00117      0.05795      0.00831      0.00138      0.05757      0.01031      
47400   0.10148    0.01206    0.02864    0.00118      0.05795      0.00830      0.00139      0.05756      0.01029      
47500   0.10148    0.01205    0.02864    0.00119      0.05794      0.00829      0.00140      0.05756      0.01028      
47600   0.10147    0.01205    0.02864    0.00118      0.05794      0.00834      0.00139      0.05755      0.01035      
47700   0.10146    0.01204    0.02863    0.00118      0.05795      0.00831      0.00139      0.05756      0.01029      
47800   0.10145    0.01204    0.02863    0.00118      0.05794      0.00831      0.00139      0.05755      0.01030      
47900   0.10145    0.01204    0.02863    0.00118      0.05794      0.00829      0.00139      0.05756      0.01027      
48000   0.10145    0.01203    0.02862    0.00118      0.05795      0.00831      0.00139      0.05756      0.01031      
48100   0.10144    0.01204    0.02862    0.00118      0.05794      0.00832      0.00140      0.05756      0.01031      
48200   0.10144    0.01203    0.02862    0.00119      0.05794      0.00829      0.00140      0.05755      0.01028      
48300   0.10143    0.01203    0.02861    0.00118      0.05793      0.00835      0.00139      0.05755      0.01036      
48400   0.10142    0.01202    0.02861    0.00118      0.05793      0.00833      0.00140      0.05755      0.01033      
48500   0.10141    0.01202    0.02861    0.00119      0.05793      0.00832      0.00140      0.05754      0.01031      
48600   0.10140    0.01201    0.02860    0.00118      0.05794      0.00832      0.00139      0.05755      0.01032      
48700   0.10140    0.01202    0.02860    0.00118      0.05795      0.00831      0.00138      0.05756      0.01032      
48800   0.10139    0.01201    0.02860    0.00118      0.05794      0.00833      0.00139      0.05755      0.01033      
48900   0.10139    0.01201    0.02859    0.00118      0.05794      0.00831      0.00139      0.05755      0.01030      
49000   0.10137    0.01200    0.02859    0.00118      0.05794      0.00830      0.00138      0.05756      0.01029      
49100   0.10137    0.01200    0.02859    0.00119      0.05793      0.00830      0.00140      0.05755      0.01031      
49200   0.10136    0.01200    0.02858    0.00119      0.05793      0.00831      0.00140      0.05754      0.01032      
49300   0.10135    0.01199    0.02858    0.00118      0.05794      0.00830      0.00139      0.05755      0.01029      
49400   0.10135    0.01199    0.02858    0.00119      0.05793      0.00830      0.00141      0.05755      0.01030      
49500   0.10134    0.01199    0.02857    0.00118      0.05794      0.00830      0.00139      0.05755      0.01028      
49600   0.10133    0.01198    0.02857    0.00118      0.05794      0.00832      0.00139      0.05755      0.01032      
49700   0.10132    0.01198    0.02856    0.00118      0.05793      0.00830      0.00140      0.05755      0.01030      
49800   0.10131    0.01197    0.02856    0.00119      0.05793      0.00832      0.00140      0.05754      0.01031      
49900   0.10130    0.01197    0.02856    0.00119      0.05793      0.00830      0.00140      0.05755      0.01029      
50000   0.10129    0.01197    0.02855    0.00118      0.05793      0.00831      0.00140      0.05755      0.01030      

---------------------------------------------------------------
Time used for training = 31003.716797 s.
---------------------------------------------------------------


---------------------------------------------------------------
Finished running nep.
---------------------------------------------------------------

