 -2.6481281e-04   5.0226849e-04
 -1.1068662e-01   1.7712572e-04
  8.7109697e-04   8.9336670e-04
 -1.6768618e-03   1.7466284e-04
 -2.3075717e-02   4.2123778e-04
  1.8070276e-03   9.5183763e-04
  2.6807414e-02   4.6056879e-04
  6.4025336e-04   8.2064909e-04
  2.5174767e-03   3.9169044e-04
  3.2502061e-03   8.0942363e-04
 -4.9182815e-03   5.7042297e-04
 -2.0062143e-03   3.2622585e-04
 -1.2948550e-04   1.8084656e-03
 -2.8133278e-03   1.1121025e-03
 -2.2199322e-03   5.5077689e-04
  9.5128710e-04   8.3339959e-04
 -5.7629182e-04   1.0986136e-03
 -3.4683393e-03   1.3304076e-03
 -1.6587933e-03   4.4265040e-04
 -6.2871212e-04   3.8798840e-04
  4.0261462e-04   4.2542926e-04
  5.3241430e-03   7.5212755e-04
 -1.4840781e-03   5.6587020e-04
 -3.1244748e-03   3.1611582e-04
 -2.5583045e-03   8.4977812e-04
  5.1334052e-04   6.7926542e-04
 -1.4330850e-03   1.6294916e-03
 -5.2997200e-03   8.4904477e-04
 -4.7108665e-04   6.3332275e-04
  2.7792372e-03   1.5447017e-04
 -4.3245961e-04   1.3842542e-03
 -1.8095329e-03   1.3807772e-03
  5.8539324e-03   4.3465933e-04
  3.1012017e-03   1.1749606e-03
  3.3954455e-04   9.9836593e-04
 -8.9464281e-03   9.9780899e-04
  4.5997254e-03   1.0220761e-03
  9.1086805e-04   7.6918275e-04
  2.6548018e-03   1.4781612e-03
  1.8838855e-03   6.2934466e-04
 -2.5031294e-04   1.3943819e-03
 -3.6592311e-03   5.9422245e-04
  2.2411009e-03   6.8118609e-04
  5.7253516e-03   2.4191670e-04
 -2.8416375e-02   2.9829998e-05
 -1.9323623e-01   2.3358323e-04
 -1.4379953e-03   2.7276599e-04
 -2.0831318e-03   5.4435519e-04
 -1.4315501e-03   3.5772598e-04
  9.6070187e-05   6.6556066e-04
  7.7277538e-03   4.6775982e-04
  6.9922959e-03   2.9631270e-04
 -2.6077793e-03   1.5511595e-03
  8.2203867e-03   4.0723957e-04
 -2.3730908e-04   1.0532991e-03
 -3.2275405e-03   1.1484439e-03
 -3.1117939e-03   1.4200310e-03
  3.5835018e-03   7.9247565e-04
  1.4677551e-03   2.1102770e-04
  3.1318906e-04   7.0231402e-04
  2.6357975e-03   8.2087913e-04
  3.8365675e-03   8.5543946e-04
  3.3547127e-05   7.2493654e-04
 -1.9725235e-03   1.2395458e-03
  4.7751109e-04   7.0457801e-04
  3.1169336e-03   7.1569940e-04
 -4.2395792e-03   1.3814117e-03
 -1.2043272e-03   4.7143039e-04
  9.2727235e-03   1.9347110e-04
  1.6117189e-04   5.5318553e-04
 -1.0290691e-03   7.3436095e-04
 -3.3743792e-05   5.7487993e-04
 -2.7436770e-03   1.1478878e-03
  3.0460560e-03   6.1411661e-04
 -5.3410591e-03   1.1027483e-03
 -2.3429457e-03   3.2367659e-04
 -3.8401922e-03   3.3093477e-04
  2.7747371e-03   7.6856680e-04
 -2.0240045e-03   2.4066736e-04
  2.6044846e-03   1.5770810e-04
  7.5922199e-03   2.2371569e-04
  4.8803492e-03   1.1206194e-03
  3.4081773e-03   6.0007448e-04
  2.6392270e-04   5.4595666e-04
 -1.0362888e-02   1.0295673e-03
 -1.8162386e-02   2.5117298e-04
  3.5874550e-03   1.2431764e-03
  1.1686262e-03   5.2568509e-04
 -3.9361315e-03   4.9490493e-04
 -1.3238274e-05   8.4955094e-04
 -1.0194045e-03   6.7692169e-04
 -1.5461402e-03   1.1419693e-03
  1.4846837e-03   9.0801116e-04
  6.2556737e-03   5.4140255e-04
 -3.8719089e-03   5.4751028e-04
  2.8952984e-03   7.9687522e-04
  2.1793493e-03   2.5880928e-04
  1.5672719e-02   4.3262035e-04
 -1.2181716e-03   2.1811826e-03
  2.6401640e-03   3.0360851e-04
  6.2938547e-04   8.3216635e-04
  3.7093603e-03   8.3117984e-04
  3.4435492e-03   6.7780045e-04
 -4.3375581e-03   5.6535128e-04
 -1.3153160e-03   6.5502862e-04
 -2.4172608e-03   6.3362654e-04
 -4.3203444e-03   1.3161089e-03
  3.3930619e-03   8.3998492e-04
 -5.6186627e-04   8.0165523e-04
 -3.1410428e-03   7.1757066e-04
  1.9652928e-04   4.8318575e-04
  9.0393651e-04   7.8368949e-04
  9.0813392e-04   8.3357189e-04
 -1.8640552e-04   1.0477004e-03
  1.8011653e-03   2.3252168e-04
  2.3193592e-03   1.2023846e-03
  4.0556234e-03   1.0197327e-03
 -1.1093735e-03   8.7612611e-04
 -6.2139477e-03   9.8936004e-04
 -1.2781334e-03   1.7597699e-03
 -1.2211930e-03   1.2310148e-03
 -1.0241055e-03   5.3365016e-04
  2.1621711e-03   8.6081529e-04
  2.8038111e-03   7.5180444e-04
  7.2855093e-03   5.4436288e-04
  8.2948590e-03   3.4632508e-04
  2.6329912e-03   2.6931602e-04
  8.1139430e-03   7.3790003e-04
 -4.1925129e-03   3.3317014e-04
 -1.1533751e-03   1.2918419e-03
 -1.0098578e-02   5.4701645e-04
 -5.2412623e-05   8.2652632e-04
 -3.2617396e-01   8.9626519e-05
  4.2181122e-01   1.7203869e-05
  2.2376454e-01   1.3672041e-04
  8.6397016e-01   3.3759923e-05
  1.9538572e-01   7.5096206e-05
 -3.0149245e-01   1.9628666e-05
  1.2716050e+00   7.3096776e-06
  1.4495603e+00   1.2327370e-05
  8.1613159e-01   1.1484401e-04
 -4.6693680e-01   2.0471257e-03
 -3.7557110e-01   2.5005199e-04
  1.2771245e+00   1.1212597e-04
 -9.5258411e-03   2.3989230e-04
 -1.7448270e-01   4.3549642e-04
  4.0191025e-03   2.6737369e-04
 -1.3682808e+00   1.8854096e-04
  7.5217625e-03   1.2041681e-04
  1.2303622e-02   1.4912542e-04
 -2.2908838e-02   1.0991537e-04
  1.2546283e-01   2.7382816e-04
 -7.4841338e-01   4.4235305e-04
 -3.3003539e-01   2.2215933e-04
  1.0440292e+00   6.1848317e-05
 -1.8486371e+00   8.7574495e-05
  4.8680738e-01   1.1172706e-04
 -5.5976558e-01   4.7697450e-04
  1.3615438e-01   8.7917841e-05
 -3.6691913e-01   5.2903988e-04
  1.3003737e-01   4.7809319e-04
  1.0486964e+00   1.0320792e-04
 -6.0587138e-02   4.8744743e-04
  8.6624956e-01   1.3414070e-04
 -1.1651478e-02   1.2955308e-04
  1.6663371e-01   3.6728205e-04
 -8.3984876e-01   5.7586964e-04
 -7.2592294e-01   5.9504790e-04
  2.4731132e-01   1.0839082e-04
  1.6076565e-01   2.4645729e-04
  4.4683725e-01   4.6774736e-04
  3.9204832e-02   1.2919120e-03
  8.7480545e-03   1.1493368e-03
 -6.0865056e-02   1.5245586e-04
  5.5995870e-02   2.6273006e-03
  2.8196090e-01   6.7251519e-04
  6.7718519e-04   1.0357428e-03
 -1.0416643e-02   2.8936070e-04
  4.1950890e-03   7.0761045e-04
 -5.4327736e-04   7.6714810e-04
  1.1827708e-03   8.8349450e-04
 -3.8097464e-03   1.3686720e-03
  3.8939975e-03   7.9834834e-04
  4.3048302e-04   6.4169621e-04
 -9.6621300e-04   9.7098236e-04
  1.0982786e-02   6.5941137e-04
 -1.0635084e-03   5.4975087e-04
 -3.4604728e-04   1.1663350e-03
  2.8137231e-04   6.7819242e-04
 -1.3207739e-03   7.9587067e-04
 -1.8553152e-04   1.1351240e-03
  4.2789066e-03   7.1807107e-04
  7.5449963e-04   4.5196235e-04
  7.9474915e-03   1.0148167e-03
  1.5675877e-03   9.1270992e-04
 -6.3204579e-03   7.4962026e-04
  1.4467891e-03   9.8362647e-04
 -1.4938053e-03   9.6255954e-04
 -4.1143936e-03   8.0576626e-04
  1.3842827e-03   9.1384491e-04
  1.0218663e-04   8.5679005e-04
  9.9502577e-05   4.2500679e-04
  1.4410554e-03   9.9140767e-04
  2.0600842e-01   1.2177735e-04
 -4.8012193e-03   6.2386860e-04
  2.1378479e-04   1.4242753e-03
  1.3902257e-03   5.7053869e-04
  1.4664466e-03   4.9602322e-04
  5.1295040e-03   4.5277656e-04
  3.1330618e-03   1.0229453e-03
  2.5100235e-03   9.8582392e-04
  7.5031043e-04   1.2836631e-03
  5.7930741e-03   8.1916637e-04
 -2.1377201e-03   7.2302745e-04
  4.2466848e-04   9.2796824e-04
 -1.0539676e-03   1.2020920e-04
  4.0759536e-04   4.0575978e-04
  2.5013494e-03   1.1661894e-03
  7.4203376e-04   1.3836974e-03
 -1.8795390e-04   5.2557106e-04
  1.8288064e-03   8.1683924e-05
  2.9416140e-02   1.8511058e-04
 -1.5983444e-03   1.1186606e-03
 -1.1441219e-03   5.8184029e-04
 -3.9267279e-03   1.7046707e-04
 -3.4833080e-04   8.3117851e-04
  2.2653192e-05   5.7742710e-04
 -1.3472434e-03   2.8391476e-04
 -8.7123679e-04   3.2036446e-04
  1.8478992e-03   8.5641316e-04
  5.6188897e-04   7.4495550e-04
 -4.8623579e-03   1.5055682e-03
  2.8730235e-03   1.0706326e-03
 -3.8034446e-03   7.8314432e-04
  9.7785995e-04   8.8458240e-04
 -1.5442861e-03   8.9475577e-04
 -2.0399233e-03   1.0994814e-03
 -5.4137234e-04   9.1392442e-04
  2.9914966e-03   3.4770573e-04
  2.5318733e-03   9.9718431e-04
 -1.1836513e-03   4.9373298e-04
  3.3307800e-03   1.2064117e-03
 -2.3511492e-04   9.4497926e-04
 -1.5225356e-04   1.0153553e-03
  2.3569623e-03   4.6447010e-04
  6.7134592e-04   6.2558643e-04
 -1.2233048e-03   7.2581158e-04
 -6.1062961e-03   9.1717090e-04
  4.7127559e-04   1.6564698e-03
 -2.9352757e-03   4.6374137e-04
 -2.0146677e-03   1.1471178e-03
 -6.9229556e-03   1.0584529e-03
 -3.1793374e-03   1.7310274e-03
 -2.3639272e-03   6.0143607e-04
 -1.5336106e-03   1.2446401e-03
  2.5799610e-03   2.4419115e-04
 -6.2171166e-04   5.1865919e-04
  1.2910993e-04   6.8615790e-04
 -6.8410055e-04   7.1632018e-04
 -8.4625063e-03   3.8061486e-04
 -1.3727241e-04   3.5940652e-04
 -4.9283972e-04   2.0474235e-04
 -2.0127702e-03   1.8636995e-03
 -1.4052108e-03   1.6812201e-03
 -4.5083282e-03   6.8469648e-04
  9.6967131e-02   1.8664647e-04
  6.9456489e-04   4.7938427e-04
  1.0561891e-02   5.0229306e-04
 -9.2161930e-04   3.5648330e-04
 -2.3721800e-04   8.1655482e-04
 -1.6050261e-03   2.3474489e-04
 -2.5815128e-03   2.7523833e-04
  5.5916916e-04   6.1306945e-04
 -1.3438343e-03   3.0406602e-04
 -9.8319305e-04   8.4392057e-04
 -4.2604987e-04   9.4846770e-04
  5.5057872e-03   5.9634552e-04
  1.0868001e-03   7.4304221e-04
 -1.0791864e-03   5.8762869e-04
 -1.5123147e-03   7.6813420e-04
  3.9441003e-03   1.2133244e-03
  2.5525512e-03   1.9135441e-04
  1.6999841e-03   6.7563169e-04
 -1.2878957e-04   1.0486448e-03
 -6.2933699e-03   6.9852255e-04
 -1.7610879e-03   6.3466729e-04
  3.6090347e-03   3.5746337e-04
  4.4469498e-03   3.9901520e-04
  2.1481931e-03   5.9648161e-04
 -4.3503703e-03   6.5938151e-04
  2.4447152e-03   6.2100898e-04
  6.7759687e-03   8.9659501e-04
  4.7678286e-03   1.9833843e-04
 -1.4671525e-03   2.8758950e-04
  2.4436487e-04   7.0715946e-04
 -8.9783833e-04   5.9407158e-04
  6.5874413e-04   1.4540210e-03
 -3.3068357e-03   6.7057542e-04
  2.5378074e-03   1.1314645e-03
  7.3683297e-04   8.7469677e-04
 -5.5314405e-03   7.1885507e-04
 -1.2180211e-03   7.6933188e-04
  4.0783193e-03   3.4894235e-04
 -5.5782371e-03   1.0163725e-03
  9.9434704e-04   1.1154225e-03
  2.5194735e-05   1.1947668e-03
 -2.9450580e-03   6.6243799e-04
  5.9751188e-04   6.8482122e-04
 -3.2653080e-03   6.1698363e-04
 -3.2532573e-01   5.1463844e-04
  1.8065497e-04   1.0294808e-03
 -2.0968919e-03   6.4815256e-05
  3.7427398e-03   4.4724962e-04
  1.1357600e-02   5.4269360e-04
  4.6637859e-03   1.4034508e-03
 -1.8785065e-03   8.4781781e-04
  2.8168871e-03   7.6714018e-04
  1.9473504e-04   6.5986754e-04
 -1.9720505e-04   1.2819899e-03
 -6.5850760e-03   4.7351408e-04
 -7.2467059e-04   1.0560183e-03
  1.3058411e-04   8.0391299e-04
  7.0186132e-03   7.3337823e-04
 -4.1230526e-03   9.7546686e-04
  2.5122750e-04   8.6610176e-04
 -7.4078925e-02   4.4671851e-04
  7.7392912e-04   8.9503074e-04
 -3.1279293e-03   1.2220261e-03
 -1.5452162e-03   1.1272684e-03
  6.2870562e-02   1.1978807e-04
  3.8666767e-04   3.6602365e-04
 -1.2605736e-04   2.1722954e-04
  6.0648186e-04   8.2847156e-04
 -6.8783858e-03   1.1690964e-03
 -2.0607971e-04   5.7925319e-04
 -4.3515647e-03   9.6550537e-04
 -5.5283832e-04   7.9227181e-04
 -2.5203062e-04   2.8600951e-04
 -2.0269430e-03   1.2231499e-03
 -1.2039181e-03   7.3215220e-04
 -1.0174625e-02   1.4962998e-03
  2.4799153e-03   5.9621222e-04
  4.2564981e-03   1.3309554e-03
  3.1571332e-03   5.9092807e-04
 -6.8827329e-04   6.4739934e-04
 -4.1503776e-03   7.1030285e-04
  3.8114281e-03   1.3146861e-03
 -3.2579366e-03   1.1551392e-03
  1.3591871e-03   1.4505219e-03
 -2.9368494e-03   4.6412525e-04
  2.3312084e-03   7.4309763e-04
 -2.1248383e-03   1.1966570e-03
 -1.8375756e-03   1.4721865e-03
 -1.2313902e-02   4.3063203e-04
  4.3404766e-04   7.5675844e-04
  2.2540749e-03   7.3733972e-04
 -2.4298790e-03   9.3775714e-04
  3.2328649e-03   8.4656058e-04
  3.6862813e-04   8.9198089e-04
 -5.7465211e-03   8.4940949e-04
  1.6968161e-03   5.9990457e-04
 -1.2141515e-03   4.4580468e-04
 -3.8616121e-04   5.6688953e-04
 -3.4943230e-03   5.6981941e-04
 -3.3774311e-03   1.3991399e-03
  3.3130348e-03   4.3610847e-04
 -9.7188470e-04   1.2135698e-03
 -1.4267326e-04   1.1847636e-03
 -3.1555549e-03   3.0744486e-04
 -5.5053894e-04   1.1442280e-03
 -7.0006517e-04   2.7745834e-04
  7.1300415e-04   1.4496568e-03
 -2.3703363e-03   9.0047013e-04
 -6.7679413e-02   5.5061777e-05
 -1.5225052e-03   8.4153702e-04
 -8.8117947e-04   6.5486412e-04
 -1.3230287e-03   1.7371387e-03
  1.5371478e-03   4.9514713e-04
 -2.6555085e-03   2.1786036e-03
 -1.1424536e-03   1.8833422e-03
  1.3462941e-03   1.6002485e-03
 -1.0916899e-03   7.4381981e-04
  1.2232402e-03   8.2744955e-04
  1.3282647e-03   9.2897803e-04
 -5.6401745e-04   8.9763227e-04
  2.4359003e-03   6.7802862e-04
  5.8678153e-04   4.0477474e-04
  1.5360231e-03   1.1096265e-03
  1.2233773e-04   7.5090985e-04
  2.0837619e-03   5.3097750e-04
  1.7171456e-04   1.1421300e-03
  8.8294724e-04   8.8129874e-04
  9.7699114e-04   3.8337868e-04
 -7.4588362e-04   1.0297040e-03
  7.2640443e-04   1.0233594e-03
  1.9776854e-03   3.1009328e-04
  4.8826761e-03   6.1854621e-04
  2.2509731e-03   8.9657039e-04
 -8.6599053e-04   4.9542519e-04
 -1.9561342e-04   1.2663695e-03
 -1.2504841e-03   1.2854022e-04
  3.7390732e-03   6.0597295e-04
  2.3896594e-03   2.0716481e-04
  2.0169974e-03   3.1715041e-04
 -2.5941399e-03   9.9660049e-04
  2.6023141e-04   9.4617542e-04
 -1.5893733e-03   1.2271730e-03
 -1.2695617e-03   7.7728758e-04
  5.0032735e-03   1.2973545e-03
 -1.3804961e-03   5.9386995e-04
 -2.3573497e-03   1.0555576e-03
  2.2166346e-03   6.8869692e-04
  4.2016100e-04   2.9776565e-04
  3.4107766e-03   1.6203995e-03
  1.4193191e-03   1.1306948e-03
 -7.2544264e-03   1.2423196e-03
 -2.1842520e-03   5.1794486e-04
  4.7967858e-03   5.5652560e-04
 -3.0086297e-03   4.6599479e-04
 -3.7646238e-03   7.3761563e-04
  2.2301241e-03   1.0920562e-03
  1.1189306e-03   4.1427853e-04
 -5.4537170e-03   1.3063607e-03
 -1.8208023e-03   4.7908488e-04
  3.8037152e-04   8.1567658e-04
 -3.4933675e-03   3.8704666e-04
  7.9455404e-03   7.6644192e-04
  5.1489228e-04   2.8399524e-04
 -1.0499895e-02   7.2118302e-04
  3.6483295e-03   7.1104139e-04
 -2.6046794e-03   1.4458954e-03
 -4.7529535e-03   4.3487953e-04
 -1.2460055e-03   5.6757603e-04
  8.1692990e-03   3.3794215e-04
 -7.2253932e-04   6.2443211e-04
  1.2136303e-03   1.1282063e-03
  6.2939185e-03   1.1284890e-03
  4.3790712e-04   1.1009362e-03
 -5.0054473e-04   4.5986843e-04
  3.7010675e-03   1.1122815e-03
  6.3718468e-01   4.5753764e-05
  2.5321504e-01   1.5088559e-05
 -4.6517644e-02   1.9813537e-05
  9.2978783e-02   6.8152796e-05
 -6.0627520e-01   8.7072083e-05
  6.4915651e-01   3.4244113e-05
 -6.3697982e-01   5.6529258e-05
  1.1069664e+00   2.0765287e-05
  5.9520125e-01   5.9634051e-04
  6.3708223e-02   1.3647430e-03
 -6.6153240e-01   3.4370311e-04
 -4.9551192e-01   3.2683145e-04
 -1.9342880e-03   5.3912762e-04
 -7.9265344e-01   2.5225835e-04
 -1.0061761e-01   3.3958425e-04
 -8.7109667e-01   9.7420161e-05
 -8.7390941e-01   2.9746388e-04
 -4.3259442e-02   2.5735301e-04
 -8.7258941e-01   2.6933412e-04
  1.7934462e-02   1.2812131e-05
 -1.9254105e-02   3.4948924e-04
 -1.2437882e-02   1.7565186e-04
  9.3567151e-01   1.3942724e-04
 -6.2165463e-01   6.7702917e-05
 -1.7259674e+00   1.4848377e-04
  1.4644802e-01   1.1347389e-04
 -1.8321997e-01   2.6281245e-04
 -1.4284019e-01   6.9700542e-04
 -1.4774369e-01   4.2970543e-04
  1.1736970e+00   6.6920227e-05
  6.7600703e-01   3.1474972e-04
 -1.7531326e+00   4.8831129e-04
 -8.0856270e-01   6.2326674e-04
  2.4168787e-03   1.5765417e-04
  5.2398187e-03   6.8239914e-04
 -1.3122876e-02   5.4879161e-04
  6.5008646e-01   3.8657137e-04
  2.2550547e-01   4.5503938e-04
 -2.7514261e-04   9.8949764e-05
  7.1663591e-03   3.9276911e-04
  1.4696431e-03   6.7470933e-04
 -1.8969048e-03   1.0002115e-03
  4.4982671e-03   6.2308321e-04
 -5.8176618e-02   1.0579019e-03
 -1.8373110e-03   1.1717583e-03
  2.6063276e-03   2.2304538e-04
  5.0009275e-04   8.1408164e-04
  9.2756399e-04   5.7149422e-04
 -2.3413794e-03   1.2989005e-03
 -3.7490749e-03   1.0986978e-03
 -3.4684155e-03   1.0449839e-03
  4.7797308e-04   7.3462987e-04
  5.0295447e-03   1.0271718e-03
 -5.5812951e-02   1.0265940e-04
 -7.3158822e-04   1.1739186e-03
  8.4243726e-04   1.6072246e-03
 -9.6871558e-04   2.8841820e-04
  7.7806733e-04   1.0968094e-03
 -2.0736489e+00   1.0518724e-04
  1.9829350e-03   1.0807943e-03
 -3.3978999e-05   6.9391588e-04
  4.0340051e-03   9.9392084e-04
  2.8353013e-04   5.7508092e-04
 -3.8938085e-04   2.0245155e-03
 -5.9640249e-03   9.5107034e-04
 -7.0766145e-03   9.1273792e-04
 -9.8738889e-04   1.0160933e-03
 -8.1768853e-04   1.0690863e-03
  1.0276744e-02   7.5600081e-04
  1.3387695e-04   6.8727025e-04
 -4.5562448e-04   1.0787937e-03
 -2.8260832e-03   1.1372847e-03
 -1.3317188e-03   9.5104240e-04
  2.9189216e-03   8.1884774e-04
  2.6901765e-03   5.5507966e-04
  3.6489398e-03   8.2168891e-04
  3.1576094e-03   1.2856278e-03
 -1.1605732e-04   5.6576030e-04
  4.5296070e-03   3.6955957e-04
  1.2554266e-03   6.9843070e-04
 -3.9094067e-04   2.8445732e-04
 -6.3157198e-04   1.1297916e-03
  5.1692170e-01   3.6232686e-04
 -2.0367135e-03   1.9412597e-04
 -1.8239478e-03   1.8257555e-04
  6.7597730e-03   1.0537470e-03
 -4.3767672e-03   1.0977145e-03
  1.1715405e-03   1.0589801e-03
  4.7514483e-02   2.2896106e-04
 -5.2554858e-01   4.0972873e-04
 -3.0663759e-01   1.4303974e-04
 -1.7983152e-01   7.4640551e-04
 -1.2307001e-03   3.3069894e-04
  5.6887288e-02   6.3821062e-04
  4.1823103e-03   4.2692709e-04
 -3.5394635e-02   2.8739384e-04
 -7.3590479e-03   7.8314950e-04
  3.6127055e-03   4.0326404e-04
  4.5617623e-03   4.9846823e-04
  8.7154858e-02   2.8803892e-04
  8.2559399e-03   1.3867287e-03
  7.2363228e-02   8.7183836e-04
  7.0908847e-03   1.1513440e-03
  1.2189421e-02   2.5375918e-04
 -9.4242068e-03   3.1558561e-04
  2.5042123e-01   7.4369874e-04
 -9.4640382e-02   2.7823311e-04
 -5.9817387e-03   1.0196653e-03
 -2.2665674e-02   1.3749117e-04
  1.6449328e-04   9.2269847e-04
 -3.0897820e-01   5.2988931e-04
  7.8457426e-03   6.2353077e-04
  1.1385467e-02   9.3999624e-05
  4.2804047e-03   4.1361421e-04
 -3.3663099e-03   3.8317047e-04
  4.3009715e-03   8.1134436e-04
 -3.1721732e-03   1.0602748e-03
 -9.6569479e-02   5.8341876e-04
 -2.4359652e-03   5.9019780e-04
 -8.6982700e-04   8.7717251e-04
  3.1546082e-03   1.2615591e-03
  5.1042892e-04   9.8478550e-04
  1.8705352e-04   1.2768410e-03
  9.5741171e-03   1.7106609e-03
 -4.0442240e-03   3.2210763e-04
 -9.2278409e-04   6.4962101e-04
  1.2986964e-03   9.9335215e-04
  1.4358902e-04   1.2054987e-03
 -1.0257635e-03   8.8916812e-04
 -5.1134557e-04   7.5684558e-04
  1.3483231e-03   7.2183087e-04
  7.0128385e-03   1.0800369e-03
 -4.1772528e-03   8.8332110e-04
  9.1280490e-03   1.3317344e-03
  3.8149106e-04   1.1755346e-03
  4.1069877e-03   5.8065157e-04
  8.9186261e-04   2.1366010e-04
 -2.5661697e-03   4.7758673e-04
  3.9114365e-03   4.2382485e-04
 -1.0857596e-03   1.0799270e-03
  3.1201076e-04   1.0550846e-03
 -2.4580690e-03   1.3019762e-03
  1.8356709e-03   8.1245485e-04
 -1.3491323e-03   7.0195069e-04
 -7.5588806e-04   4.9932708e-04
 -2.3049698e-03   7.8102743e-04
  4.8665871e-04   4.2989504e-04
  5.2314247e-03   1.3417994e-03
  2.6912563e-03   7.2153966e-04
 -2.2522083e-03   3.0215189e-04
 -2.3505285e-04   5.8684789e-04
 -2.4121602e-03   1.0622899e-03
  1.1271982e-03   1.3109861e-03
 -5.2010917e-05   5.7234027e-04
  5.2853264e-03   5.4050866e-04
  3.7482658e-03   6.7978137e-04
  6.5071401e-03   1.5178068e-04
 -1.3996115e-03   5.6819321e-04
  1.6262777e-03   6.6895247e-04
 -4.0855721e-02   4.0912742e-05
  1.8769735e-03   6.7085575e-04
 -3.9450130e-03   1.4151512e-03
 -1.9082988e-03   8.3703909e-04
  6.5279793e-04   9.2960143e-04
 -6.8484020e-05   5.3369411e-04
  1.2827091e-03   5.1517028e-04
 -1.2522729e-03   6.1075442e-04
  2.2648543e-03   9.5064827e-04
 -3.1638710e-04   6.7628652e-04
 -2.3320394e-03   1.0746393e-03
  1.6519850e-03   1.1013637e-03
 -3.0830910e-04   1.2606023e-03
  3.7893471e-03   1.9400732e-03
 -4.5787939e-04   8.4929477e-04
 -5.5626268e-05   5.9674046e-04
 -2.8697070e-04   6.5441453e-04
  3.5357467e-04   2.3282813e-04
  2.2140819e-01   1.7646518e-04
  1.1523499e+00   5.9541169e-04
 -4.8022799e-04   3.3778462e-04
 -5.0035197e-01   2.9162920e-04
 -4.4604897e-02   4.3888908e-04
 -6.9621734e-02   4.3187194e-04
 -7.4354060e-02   1.3476858e-04
  8.3574333e-04   9.9667662e-04
  3.5527317e-04   1.9582757e-04
  4.5741103e-03   4.5359283e-04
  1.2310623e-01   1.0611606e-03
  2.4056381e-03   6.3103769e-04
  6.4473408e-03   9.4095408e-04
 -9.6528465e-04   4.7396286e-04
  4.0552102e-02   1.8416846e-03
  5.7887484e-04   3.9477559e-04
  1.3330156e-01   9.7137108e-04
 -8.6181681e-04   6.4625492e-04
  1.6775405e-03   9.5312914e-04
  2.0353900e-02   5.8449031e-04
 -1.4172000e-03   1.0698223e-03
 -7.3609725e-03   4.3314803e-04
  2.7640651e-03   3.3751252e-04
 -5.6499518e-03   8.3780830e-04
 -1.3464069e-04   5.6546420e-04
  1.9983163e-03   6.1044481e-04
  7.0138683e-04   8.9175149e-04
 -1.3124336e-03   9.1645774e-04
 -1.2197689e-03   4.3234494e-04
 -9.0332357e-03   9.3345327e-04
  7.4897297e-03   2.6428257e-03
  1.8985099e-03   1.4896832e-03
 -1.8602452e-03   9.7623293e-04
 -3.6711085e-03   1.1917162e-03
 -6.4082928e-03   1.5897740e-03
  5.1827886e-04   9.0820453e-04
 -6.1714672e-04   8.9986192e-04
  3.9738985e-03   8.8993955e-04
  1.3241287e-03   5.8357086e-04
 -5.2163103e-03   7.1092451e-04
  4.2330660e-04   4.3605349e-04
 -5.2653705e-03   1.8460783e-03
 -2.7507094e-03   1.0979844e-03
  8.0311880e-02   5.9668389e-05
 -5.5948168e-01   1.8397546e-04
 -1.9412246e-03   5.1282212e-04
  7.2406624e-03   1.0251714e-03
  2.7156954e-03   8.1761082e-04
 -2.8201926e-04   4.6128276e-04
 -1.0601082e-03   7.9629937e-04
 -1.7046696e-03   8.1499905e-04
 -4.4777519e-03   6.3422264e-04
 -1.0038283e-02   1.2150705e-03
  3.5987059e-03   4.1882004e-04
 -8.7772572e-04   5.7882490e-04
 -1.3073435e-03   7.4326975e-04
  5.8912620e-04   3.8860022e-04
 -1.1512617e-03   8.2880619e-04
 -3.2952819e-03   9.3776028e-04
  1.8539469e-04   3.5282894e-04
  2.9697642e-04   9.9655334e-04
  5.0830618e-03   7.2339800e-04
 -1.0758776e-03   4.4883371e-04
 -5.7202554e-03   1.1483959e-03
  1.2697610e-03   1.1473037e-03
 -7.8582466e-03   4.6187799e-04
 -3.9391220e-03   1.3684974e-03
  3.9429584e-04   7.0870959e-04
  7.5139024e-04   6.8445888e-04
 -2.5973355e-03   5.2599463e-04
  1.0362198e-03   6.9911947e-04
 -1.5367207e-03   2.9118883e-04
 -1.5290510e-03   1.3509090e-03
  1.8898008e-04   3.8110043e-04
 -8.7767554e-04   1.0090818e-03
  1.7493665e-03   6.4390182e-04
  2.0875880e-03   1.7358293e-03
 -3.1159821e-03   7.1728276e-04
  1.3157290e-04   6.8724249e-04
  4.7670721e-04   7.3271245e-04
  3.6538992e-04   3.7749475e-04
  3.7721568e-03   4.0332033e-04
  1.7595837e-03   1.2405849e-03
  1.5254248e-03   1.2366186e-03
 -1.0665976e-03   5.3127931e-04
 -7.4997533e-04   8.2757889e-04
  6.7183579e-04   3.7929800e-04
 -1.7321103e-03   6.6724070e-04
 -5.0842599e-04   7.5245928e-04
  3.3922715e-04   7.6053746e-04
  4.7700404e-04   7.0024066e-04
  1.9910873e-03   9.5711777e-04
  3.2345457e-03   1.2094158e-03
 -4.6886443e-04   8.1525452e-04
 -5.7972618e-03   1.0463218e-03
  1.0732617e-03   9.1131619e-04
  7.7057106e-04   4.5453137e-04
 -2.1502035e-04   1.2660602e-03
 -1.7796234e-03   3.3004503e-04
  6.6415193e-03   5.2184338e-04
  9.6123256e-03   9.1728708e-04
  2.7540987e-03   1.3861106e-03
  2.6179320e-04   9.0560230e-04
  2.9267117e-03   8.3845906e-04
  1.0222163e-02   1.2435337e-03
 -5.2198530e-03   5.6038692e-04
 -3.3514893e-03   8.2258234e-04
  6.3133362e-04   8.5729006e-04
  1.1191557e-02   5.8560353e-04
 -7.7442778e-03   1.2982368e-03
 -3.8295984e-03   9.8564150e-04
  1.7862426e-03   9.0430951e-04
 -5.6247122e-04   3.5027691e-04
  8.6664775e-04   8.6479209e-04
  3.1634164e-03   3.2408664e-04
  2.3138532e-03   1.3602004e-04
 -5.2448543e-04   4.4239117e-04
 -2.6908321e-03   1.4491030e-03
 -2.9824104e-03   6.2318984e-04
  2.7796093e-03   4.4524367e-04
  3.5276692e-03   4.0907227e-04
  5.9427051e-03   1.0316727e-03
 -9.9204024e-03   7.9329929e-04
  3.9028237e-07   4.9140764e-04
  1.6254099e-03   5.7009672e-04
 -2.8442495e-04   8.0634875e-04
 -4.5817937e-03   4.7374592e-04
 -1.5726098e-03   1.1755553e-03
  2.7256224e-03   5.9472816e-04
 -2.1061078e-03   6.0800952e-04
  2.8216681e-03   1.0209930e-03
 -1.3460529e-01   4.0217649e-04
 -3.2661521e-01   1.2292476e-04
  2.2659371e-02   1.2065251e-03
 -2.4942030e-01   2.4053791e-04
  6.0856447e-04   4.2057826e-04
 -7.6918326e-02   2.9543374e-04
 -8.5110350e-06   2.6503150e-04
 -7.6821196e-01   9.9442354e-05
  4.8108387e-04   1.1092431e-03
 -2.7905048e-03   1.0811604e-04
  1.1711206e-02   1.4821383e-03
  1.4355073e-03   1.0083161e-03
  1.5829786e-03   4.4472641e-04
 -1.2010005e-03   9.9940365e-04
  5.7911570e-04   5.9745938e-04
  7.6865993e-04   6.6113193e-04
 -3.7142795e-03   6.2496561e-05
  2.5000975e-01   4.3433486e-04
  1.5012175e-01   8.1842195e-04
  8.6748408e-04   4.6807891e-04
  4.2513520e-03   2.7495236e-04
 -1.8380003e-02   4.8007697e-04
  2.3866554e-03   6.8758999e-04
  3.4543857e-01   4.6346255e-04
  4.5189769e-03   1.1051156e-03
  2.9010382e-03   8.2052167e-04
  7.8337202e-03   9.3200069e-04
 -3.5959310e-04   9.5074374e-04
 -2.3199748e-03   5.5127020e-04
 -2.4380682e-03   4.6266610e-04
 -4.7033504e-03   1.0427092e-03
  3.3260370e-03   9.5293554e-04
  3.4186593e-03   1.4403844e-03
 -5.8817619e-04   5.3876551e-04
  2.0117410e-03   1.0637793e-03
 -2.3297179e-03   6.1178172e-04
 -3.0350799e-03   1.3650076e-03
 -4.4347970e-03   1.0897124e-03
  1.3151618e-03   1.1755988e-03
  1.3276671e-04   1.4004480e-03
  3.2890579e-03   1.2054360e-04
 -1.9023333e-03   5.4572453e-04
 -1.1649962e-03   4.5309306e-04
  2.2720611e-03   3.8482744e-04
 -1.6202323e+00   5.4836477e-05
 -1.3309039e+00   2.5372132e-05
  4.2190090e-01   1.0239625e-04
  1.0233334e+00   1.8242588e-06
 -8.8881887e-02   3.0728177e-05
 -3.7655860e-01   1.4129918e-04
 -3.0102688e-01   2.6302538e-05
  1.0748410e+00   7.5934506e-05
 -2.8772381e-01   2.0132506e-04
 -3.3758751e-03   9.4554067e-04
 -4.3148380e-02   2.7840403e-03
 -5.9070146e-01   1.4722432e-04
 -1.4540765e-01   1.2950732e-03
  5.3816933e-02   6.0534036e-05
 -2.8808975e-01   1.2331846e-03
 -1.6052906e-03   1.1873416e-03
 -1.8106682e-02   3.3877560e-04
 -2.9597118e-01   2.3884053e-04
  2.3122683e-02   1.4525570e-04
 -4.2828941e-01   1.8759354e-04
  1.9468373e-01   1.8720861e-04
  2.1522105e-01   1.1449019e-04
 -4.2132083e-03   2.7024141e-04
  8.5122889e-01   2.0903864e-04
  7.9322502e-02   4.3216845e-04
 -5.8007526e-01   5.3434871e-04
  3.9585540e-04   7.1204593e-04
  3.5867475e-02   5.6811690e-04
  3.6841699e-01   3.4706961e-04
  4.5616063e-01   2.1423101e-04
 -3.2225996e-01   6.9945637e-04
  1.0897450e-01   5.0828513e-04
 -2.6977998e-03   5.6067912e-04
 -2.1596292e-01   1.8681737e-04
 -6.0920287e-02   2.7265065e-04
 -4.7308332e-03   1.3142285e-03
 -3.0730101e-01   8.5068058e-04
 -1.0868907e-03   8.2478253e-04
  6.3041352e-02   5.0062034e-04
 -9.6589718e-03   7.1263150e-04
 -7.1825976e-03   4.9091864e-04
  1.7442105e-03   5.9457350e-04
  2.7234049e-04   6.5095397e-04
  1.6653535e-01   1.3463740e-03
  1.7318669e-01   8.2594437e-05
 -5.3873354e-01   1.4531298e-05
  5.6304842e-01   2.7034662e-04
  7.1728164e-01   1.8151435e-05
 -6.2166881e-02   5.1558109e-05
  2.1349804e-01   8.0322970e-05
  1.8343762e+00   1.4822015e-04
  8.8612594e-02   1.2798815e-04
  1.7088877e+00   4.1180951e-04
  5.9486318e-02   1.2709390e-03
  5.7682920e-01   1.3341670e-03
 -5.6431363e-03   8.5289401e-05
  3.2183274e-03   7.3185057e-04
 -7.5705927e-03   5.8511365e-04
 -6.1151695e-01   9.1773359e-04
  9.4083095e-01   1.0664491e-03
 -1.1337552e-01   3.5921135e-04
 -3.3394313e-01   3.4680689e-04
  3.0123511e-01   1.2570850e-04
 -3.6157167e-01   2.2561257e-04
  2.7475330e-01   7.2802888e-04
  1.0555020e-02   7.3679676e-04
 -2.5478357e-01   3.1899137e-05
  1.7848901e-01   1.8780590e-04
  1.6587487e-01   5.7660538e-04
  7.6421416e-01   2.1012881e-04
  4.0454635e-01   3.7184273e-04
  1.1930999e-01   1.4302088e-03
  1.4304313e-01   2.9749441e-04
  4.2715523e-01   6.5560453e-05
  7.5920545e-03   7.7452837e-04
  2.3467699e-01   7.8428874e-04
  1.1043502e-01   1.3747218e-04
 -3.6302216e-03   7.3119183e-04
 -7.9321880e-03   6.5797393e-04
  6.4782947e-02   6.7069114e-04
 -2.9136449e-02   1.2638285e-04
 -2.8013021e-02   1.1619977e-03
 -5.5393353e-03   3.8777431e-04
 -3.0325991e-01   1.6456958e-03
 -1.0287597e-02   6.3979806e-04
  4.2121559e-03   2.7369222e-04
 -2.8651761e-05   1.0998944e-03
 -3.0922694e-02   8.0178631e-04
 -5.1327080e-01   1.9961376e-04
  3.4952101e-01   9.6494936e-05
  2.6999423e-01   1.4279521e-04
 -3.8036391e-01   4.1322110e-05
 -1.5670955e-01   1.3634154e-05
 -2.0890266e-01   3.2238674e-04
 -3.7119365e-01   9.5600924e-05
  1.3772838e+00   4.4048324e-04
 -1.7518253e-04   1.5177805e-03
 -7.8049577e-03   5.9265387e-04
  2.4180476e-02   1.9068839e-03
  3.2554660e-02   1.4288413e-03
 -3.2148957e-03   1.5952998e-03
  2.1865843e-03   1.0662943e-03
 -1.2898398e-02   1.2755702e-03
  9.7101152e-02   1.3113294e-03
  3.2247130e-02   8.1596558e-04
  5.2300304e-01   3.0981158e-04
  6.5386176e-02   2.8293399e-04
 -4.7692847e-03   5.2584801e-04
  2.0742316e-02   7.6938508e-04
  1.3566985e-03   6.7869236e-04
  1.5284111e-01   5.2852568e-04
  1.6343594e-01   5.3368945e-04
  1.1258276e+00   3.2873423e-04
  8.9918850e-03   6.0592603e-04
  1.3139535e-01   1.3319186e-04
  4.3159649e-02   7.0714188e-04
  9.8967910e-02   1.1613704e-03
 -2.6987894e-03   1.2680824e-04
 -2.0062469e-01   1.8731864e-03
  2.5118810e-01   9.2430616e-04
  1.8564371e-02   8.9252857e-04
  4.4013569e-03   4.6301074e-04
 -5.3569481e-02   1.6958769e-04
 -5.5852038e-04   6.8354164e-04
  4.4677223e-04   2.3034211e-04
 -7.2899139e-03   5.7691330e-04
  1.0919201e-01   1.3242617e-04
  4.5532294e-04   5.1500759e-04
 -1.0131962e-02   1.1796214e-03
  2.5675443e-03   1.1017242e-03
 -8.9278189e-04   8.3636562e-04
  1.1534354e-03   5.4028834e-04
  1.5018984e+00   3.9470659e-05
  2.5380304e+00   7.4453305e-06
  1.1523999e+00   1.4147612e-04
  8.8190913e-01   4.4697539e-05
  7.2092235e-01   8.0104110e-06
 -9.2094600e-01   1.7149909e-04
 -1.1056339e+00   2.9906238e-05
  5.6791902e-01   4.3136850e-05
 -6.3892353e-01   1.3918674e-04
 -7.2953051e-01   1.1686794e-03
 -1.6911979e-03   4.5041781e-04
  3.7023214e-01   3.0121603e-04
 -2.0986525e-03   2.5627497e-04