
***************************************************************
*                 Welcome to use GPUMD                        *
*    (Graphics Processing Units Molecular Dynamics)           *
*                     Version 3.8                             *
*              This is the nep executable                     *
***************************************************************


---------------------------------------------------------------
GPU information:
---------------------------------------------------------------

number of GPUs = 2
Device id:                   0
    Device name:             NVIDIA GeForce RTX 3090
    Compute capability:      8.6
    Amount of global memory: 23.6911 GB
    Number of SMs:           82
Device id:                   1
    Device name:             NVIDIA GeForce RTX 3090
    Compute capability:      8.6
    Amount of global memory: 23.6911 GB
    Number of SMs:           82
GPU-0 cannot access GPU-1.
GPU-1 cannot access GPU-0.

---------------------------------------------------------------
Started running nep.
---------------------------------------------------------------


---------------------------------------------------------------
Started reading nep.in.
---------------------------------------------------------------

Input or default parameters:
    (default) model_type = potential.
    (default) calculation mode = train.
    (input)   use NEP version 4.
    (input)   number of atom types = 2.
        (default) type 0 (Cu with Z = 29) has force weight of 1.
        (default) type 1 (Se with Z = 34) has force weight of 1.
    (default) will not add the ZBL potential.
    (input)   radial cutoff = 7 A.
    (input)   angular cutoff = 5 A.
    (input)   n_max_radial = 8.
    (input)   n_max_angular = 6.
    (input)   basis_size_radial = 12.
    (input)   basis_size_angular = 12.
    (input)   l_max_3body = 4.
    (input)   l_max_4body = 2.
    (input)   l_max_5body = 0.
    (input)   number of neurons = 50.
    (default) lambda_1 = -1.
    (default) lambda_2 = -1.
    (input)   lambda_e = 1.
    (input)   lambda_f = 1.
    (input)   lambda_v = 0.2.
    (default) lambda_shear = 1.
    (default) force_delta = 0.
    (input)   batch size = 1000.
    (input)   population size = 50.
    (input)   maximum number of generations = 250000.
Some calculated parameters:
    number of radial descriptor components = 9.
    number of angular descriptor components = 35.
    total number of descriptor components = 44.
    NN architecture = 44-50-1.
    number of NN parameters to be optimized = 4601.
    number of descriptor parameters to be optimized = 832.
    total number of parameters to be optimized = 5433.

---------------------------------------------------------------
Finished reading nep.in.
---------------------------------------------------------------


---------------------------------------------------------------
Started reading train.xyz.
---------------------------------------------------------------

Number of configurations = 370.
Number of devices = 2
Number of batches = 1
Hello, I changed the batch_size from 1000 to 370.

Batch 0:
Number of configurations = 370.

---------------------------------------------------------------
Constructing train_set in device  0.
Total number of atoms = 104820.
Number of atoms in the largest configuration = 596.
Number of configurations having virial = 370.
Radial descriptor with a cutoff of 7 A:
    Minimum number of neighbors for one atom = 63.
    Maximum number of neighbors for one atom = 100.
Angular descriptor with a cutoff of 5 A:
    Minimum number of neighbors for one atom = 20.
    Maximum number of neighbors for one atom = 44.
---------------------------------------------------------------


---------------------------------------------------------------
Constructing train_set in device  1.
Total number of atoms = 104820.
Number of atoms in the largest configuration = 596.
Number of configurations having virial = 370.
Radial descriptor with a cutoff of 7 A:
    Minimum number of neighbors for one atom = 63.
    Maximum number of neighbors for one atom = 100.
Angular descriptor with a cutoff of 5 A:
    Minimum number of neighbors for one atom = 20.
    Maximum number of neighbors for one atom = 44.
---------------------------------------------------------------


---------------------------------------------------------------
Started reading test.xyz.
---------------------------------------------------------------

Number of configurations = 170.

---------------------------------------------------------------
Constructing test_set in device  0.
Total number of atoms = 50240.
Number of atoms in the largest configuration = 596.
Number of configurations having virial = 170.
Radial descriptor with a cutoff of 7 A:
    Minimum number of neighbors for one atom = 63.
    Maximum number of neighbors for one atom = 95.
Angular descriptor with a cutoff of 5 A:
    Minimum number of neighbors for one atom = 20.
    Maximum number of neighbors for one atom = 40.
---------------------------------------------------------------


---------------------------------------------------------------
Constructing test_set in device  1.
Total number of atoms = 50240.
Number of atoms in the largest configuration = 596.
Number of configurations having virial = 170.
Radial descriptor with a cutoff of 7 A:
    Minimum number of neighbors for one atom = 63.
    Maximum number of neighbors for one atom = 95.
Angular descriptor with a cutoff of 5 A:
    Minimum number of neighbors for one atom = 20.
    Maximum number of neighbors for one atom = 40.
---------------------------------------------------------------


---------------------------------------------------------------
Time used for initialization = 0.331201 s.
---------------------------------------------------------------


---------------------------------------------------------------
Started training.
---------------------------------------------------------------

Step    Total-Loss L1Reg-Loss L2Reg-Loss RMSE-E-Train RMSE-F-Train RMSE-V-Train RMSE-E-Test  RMSE-F-Test  RMSE-V-Test  
100     0.39594    0.07259    0.08916    0.01384      0.19871      0.10824      0.01104      0.18874      0.07360      
200     0.37107    0.07297    0.09056    0.01479      0.17308      0.09835      0.01347      0.16570      0.10437      
300     0.35843    0.07449    0.09267    0.00713      0.16703      0.08552      0.00632      0.15925      0.05457      
400     0.41978    0.09121    0.11382    0.01667      0.18100      0.08541      0.01626      0.17116      0.04875      
500     0.40225    0.09022    0.11317    0.00895      0.17652      0.06692      0.00771      0.17102      0.04453      
600     0.42961    0.09923    0.12518    0.01046      0.17533      0.09705      0.01174      0.16513      0.04949      
700     0.43964    0.10460    0.13161    0.01269      0.17222      0.09262      0.00934      0.16529      0.04789      
800     0.42861    0.10437    0.13165    0.01368      0.16860      0.05155      0.01376      0.16439      0.05365      
900     0.46414    0.11526    0.14526    0.01752      0.17344      0.06325      0.01446      0.16606      0.05210      
1000    0.43806    0.11082    0.13959    0.01497      0.15884      0.06917      0.01717      0.15480      0.07825      
1100    0.48600    0.12496    0.15781    0.01808      0.16969      0.07732      0.01690      0.16358      0.08634      
1200    0.46892    0.12247    0.15451    0.01221      0.16443      0.07649      0.01359      0.15943      0.05021      
1300    0.45547    0.12063    0.15230    0.01401      0.15099      0.08773      0.00679      0.14837      0.07601      
1400    0.45623    0.12198    0.15399    0.01614      0.15179      0.06170      0.01251      0.14535      0.06901      
1500    0.46777    0.12651    0.15983    0.01281      0.15347      0.07578      0.00839      0.14994      0.08568      
1600    0.45576    0.12451    0.15817    0.01093      0.14727      0.07435      0.00954      0.14132      0.03801      
1700    0.46323    0.12787    0.16207    0.00910      0.15280      0.05698      0.00783      0.14786      0.05936      
1800    0.46113    0.12840    0.16252    0.01035      0.14348      0.08188      0.00948      0.13669      0.08545      
1900    0.45439    0.12777    0.16166    0.00907      0.14595      0.04968      0.01012      0.14109      0.05448      
2000    0.46196    0.13057    0.16561    0.00898      0.14839      0.04211      0.00975      0.14372      0.03280      
2100    0.46839    0.13331    0.16948    0.01251      0.14235      0.05370      0.01097      0.13572      0.03759      
2200    0.43454    0.12436    0.15817    0.01161      0.13130      0.04553      0.00688      0.12643      0.02999      
2300    0.43360    0.12495    0.15929    0.00867      0.13271      0.03989      0.00969      0.12665      0.04494      
2400    0.43196    0.12529    0.15965    0.00692      0.13385      0.03122      0.00581      0.12992      0.03146      
2500    0.44101    0.12846    0.16388    0.00547      0.13531      0.03949      0.00544      0.13193      0.03378      
2600    0.41744    0.12245    0.15601    0.00691      0.12412      0.03968      0.00736      0.12014      0.04446      
2700    0.42243    0.12447    0.15879    0.00735      0.12275      0.04534      0.00904      0.11758      0.04112      
2800    0.41818    0.12377    0.15801    0.00451      0.12195      0.04970      0.00444      0.11958      0.03532      
2900    0.41572    0.12345    0.15775    0.00556      0.11955      0.04707      0.00503      0.11605      0.04785      
3000    0.41561    0.12348    0.15828    0.00570      0.11458      0.06781      0.00403      0.11062      0.04584      
3100    0.40270    0.12017    0.15421    0.00551      0.11505      0.03880      0.00687      0.11061      0.03395      
3200    0.42096    0.12579    0.16186    0.00645      0.11916      0.03846      0.00651      0.11564      0.03239      
3300    0.39456    0.11815    0.15224    0.00416      0.11391      0.03047      0.00453      0.11105      0.02509      
3400    0.41167    0.12362    0.15942    0.00911      0.11251      0.03506      0.00701      0.10883      0.03004      
3500    0.39151    0.11779    0.15199    0.00516      0.10939      0.03593      0.00579      0.10337      0.03256      
3600    0.40594    0.12284    0.15833    0.00664      0.10907      0.04532      0.00490      0.10227      0.04058      
3700    0.41291    0.12548    0.16143    0.00643      0.11150      0.04034      0.00816      0.10764      0.04134      
3800    0.39262    0.11959    0.15401    0.00560      0.10649      0.03463      0.00443      0.10128      0.03193      
3900    0.39691    0.12120    0.15667    0.00889      0.10382      0.03164      0.00850      0.09911      0.02770      
4000    0.39456    0.12082    0.15620    0.00443      0.10530      0.03910      0.00492      0.10015      0.03984      
4100    0.39568    0.12126    0.15721    0.00549      0.10382      0.03945      0.00627      0.10104      0.03982      
4200    0.40279    0.12365    0.16044    0.00586      0.10553      0.03657      0.00525      0.10296      0.03546      
4300    0.41331    0.12759    0.16500    0.00800      0.10536      0.03678      0.00940      0.10156      0.04052      
4400    0.41494    0.12844    0.16603    0.00642      0.10683      0.03615      0.00445      0.10294      0.02594      
4500    0.40445    0.12552    0.16207    0.00426      0.10666      0.02966      0.00505      0.10322      0.02993      
4600    0.39450    0.12244    0.15835    0.00462      0.10361      0.02740      0.00584      0.10125      0.02923      
4700    0.39461    0.12283    0.15876    0.00434      0.10180      0.03436      0.00497      0.09863      0.03414      
4800    0.39295    0.12255    0.15829    0.00336      0.10267      0.03037      0.00349      0.09945      0.02761      
4900    0.39877    0.12479    0.16064    0.00654      0.09992      0.03438      0.00476      0.09718      0.02762      
5000    0.39683    0.12459    0.16001    0.00292      0.10092      0.04193      0.00334      0.09612      0.05203      
5100    0.39669    0.12463    0.16059    0.00663      0.09918      0.02826      0.00411      0.09590      0.03502      
5200    0.40224    0.12655    0.16319    0.00618      0.10128      0.02519      0.00571      0.09755      0.02426      
5300    0.38933    0.12257    0.15822    0.00529      0.09694      0.03152      0.00498      0.09349      0.02193      
5400    0.39959    0.12573    0.16284    0.00386      0.09995      0.03602      0.00354      0.09744      0.02615      
5500    0.38374    0.12119    0.15632    0.00311      0.09743      0.02843      0.00358      0.09382      0.02668      
5600    0.38721    0.12244    0.15774    0.00368      0.09810      0.02626      0.00391      0.09458      0.01975      
5700    0.37710    0.11946    0.15398    0.00388      0.09445      0.02662      0.00348      0.09181      0.02735      
5800    0.37120    0.11763    0.15202    0.00513      0.09104      0.02691      0.00474      0.08793      0.02335      
5900    0.36654    0.11632    0.15048    0.00401      0.09120      0.02272      0.00464      0.08779      0.02421      
6000    0.37784    0.11987    0.15498    0.00394      0.09115      0.03952      0.00370      0.08764      0.03213      
6100    0.38375    0.12204    0.15767    0.00459      0.09229      0.03582      0.00576      0.08948      0.02304      
6200    0.38039    0.12114    0.15661    0.00507      0.09250      0.02537      0.00389      0.08822      0.02113      
6300    0.37078    0.11822    0.15274    0.00372      0.09124      0.02431      0.00424      0.08742      0.02787      
6400    0.36783    0.11712    0.15173    0.00323      0.09197      0.01887      0.00345      0.08877      0.02065      
6500    0.37384    0.11909    0.15432    0.00467      0.08729      0.04231      0.00413      0.08400      0.04683      
6600    0.37630    0.12008    0.15566    0.00516      0.08860      0.03404      0.00344      0.08504      0.02066      
6700    0.36477    0.11636    0.15109    0.00301      0.08925      0.02530      0.00334      0.08644      0.02399      
6800    0.37411    0.11959    0.15501    0.00528      0.08944      0.02392      0.00485      0.08574      0.02696      
6900    0.37089    0.11874    0.15401    0.00421      0.08881      0.02557      0.00397      0.08594      0.02249      
7000    0.37463    0.11994    0.15569    0.00304      0.09073      0.02614      0.00345      0.08806      0.02625      
7100    0.37359    0.11972    0.15569    0.00282      0.08907      0.03147      0.00319      0.08600      0.02848      
7200    0.38437    0.12329    0.16033    0.00407      0.09110      0.02783      0.00440      0.08808      0.02221      
7300    0.38046    0.12219    0.15892    0.00358      0.08955      0.03116      0.00336      0.08552      0.02237      
7400    0.37559    0.12051    0.15694    0.00349      0.08922      0.02716      0.00375      0.08615      0.02574      
7500    0.38792    0.12462    0.16253    0.00371      0.09191      0.02576      0.00340      0.08852      0.01924      
7600    0.37229    0.11997    0.15591    0.00435      0.08796      0.02050      0.00371      0.08460      0.01911      
7700    0.36686    0.11848    0.15371    0.00354      0.08575      0.02696      0.00469      0.08353      0.02472      
7800    0.36843    0.11920    0.15451    0.00310      0.08744      0.02093      0.00336      0.08480      0.01921      
7900    0.36811    0.11917    0.15467    0.00317      0.08584      0.02634      0.00290      0.08411      0.02016      
8000    0.36474    0.11794    0.15379    0.00340      0.08556      0.02026      0.00366      0.08323      0.01921      
8100    0.37320    0.12042    0.15743    0.00682      0.08418      0.02176      0.00459      0.08264      0.02539      
8200    0.37396    0.12080    0.15789    0.00360      0.08635      0.02659      0.00319      0.08421      0.02543      
8300    0.35560    0.11500    0.15010    0.00247      0.08321      0.02407      0.00288      0.08108      0.02093      
8400    0.36690    0.11879    0.15514    0.00395      0.08402      0.02500      0.00424      0.08202      0.02386      
8500    0.35719    0.11575    0.15101    0.00308      0.08272      0.02310      0.00318      0.08010      0.02425      
8600    0.35845    0.11609    0.15179    0.00249      0.08432      0.01883      0.00275      0.08193      0.01788      
8700    0.35752    0.11595    0.15127    0.00338      0.08356      0.01682      0.00351      0.08186      0.01808      
8800    0.36582    0.11878    0.15511    0.00422      0.08307      0.02313      0.00433      0.08062      0.02397      
8900    0.36067    0.11710    0.15293    0.00395      0.08317      0.01758      0.00405      0.08149      0.02002      
9000    0.36364    0.11824    0.15441    0.00298      0.08337      0.02320      0.00264      0.08079      0.01787      
9100    0.36341    0.11817    0.15419    0.00260      0.08423      0.02107      0.00302      0.08147      0.02343      
9200    0.35345    0.11505    0.14996    0.00261      0.08172      0.02053      0.00294      0.07965      0.02102      
9300    0.35769    0.11646    0.15186    0.00223      0.08325      0.01948      0.00242      0.08073      0.02282      
9400    0.36556    0.11899    0.15505    0.00318      0.08358      0.02379      0.00275      0.08083      0.02187      
9500    0.36162    0.11784    0.15333    0.00340      0.08140      0.02826      0.00374      0.07927      0.03081      
9600    0.35346    0.11496    0.15020    0.00380      0.08030      0.02102      0.00435      0.07776      0.02444      
9700    0.36278    0.11848    0.15419    0.00286      0.08267      0.02295      0.00301      0.07989      0.02470      
9800    0.35589    0.11628    0.15116    0.00243      0.08180      0.02113      0.00257      0.07907      0.01989      
9900    0.35043    0.11420    0.14895    0.00299      0.08058      0.01859      0.00294      0.07810      0.01768      
10000   0.35879    0.11725    0.15263    0.00366      0.08186      0.01694      0.00481      0.07992      0.02047      
10100   0.35615    0.11627    0.15107    0.00267      0.08196      0.02096      0.00311      0.07908      0.01872      
10200   0.34965    0.11430    0.14847    0.00233      0.08041      0.02068      0.00227      0.07795      0.02188      
10300   0.35070    0.11485    0.14917    0.00261      0.08085      0.01614      0.00267      0.07835      0.01762      
10400   0.35589    0.11648    0.15138    0.00292      0.08107      0.02022      0.00311      0.07892      0.02171      
10500   0.35918    0.11751    0.15294    0.00305      0.08196      0.01860      0.00362      0.07942      0.01903      
10600   0.35620    0.11677    0.15169    0.00252      0.08143      0.01896      0.00243      0.07899      0.02046      
10700   0.35521    0.11644    0.15124    0.00231      0.08146      0.01881      0.00276      0.07907      0.02219      
10800   0.35721    0.11715    0.15206    0.00339      0.08001      0.02308      0.00296      0.07757      0.01728      
10900   0.35561    0.11639    0.15155    0.00388      0.08068      0.01554      0.00327      0.07860      0.01829      
11000   0.35760    0.11712    0.15243    0.00307      0.08165      0.01670      0.00298      0.07986      0.01809      
11100   0.35192    0.11499    0.15008    0.00295      0.08044      0.01733      0.00339      0.07786      0.01883      
11200   0.35053    0.11454    0.14920    0.00307      0.08026      0.01731      0.00295      0.07784      0.01695      
11300   0.35479    0.11575    0.15121    0.00386      0.08068      0.01645      0.00385      0.07921      0.01724      
11400   0.35137    0.11476    0.14949    0.00252      0.08040      0.02100      0.00287      0.07827      0.01903      
11500   0.34684    0.11317    0.14746    0.00280      0.07990      0.01752      0.00287      0.07770      0.01813      
11600   0.35601    0.11605    0.15092    0.00356      0.08033      0.02573      0.00316      0.07768      0.01663      
11700   0.34534    0.11256    0.14653    0.00296      0.07999      0.01648      0.00267      0.07768      0.01661      
11800   0.34291    0.11164    0.14557    0.00255      0.07942      0.01866      0.00291      0.07738      0.01952      
11900   0.34287    0.11133    0.14527    0.00261      0.07981      0.01931      0.00251      0.07780      0.01959      
12000   0.34353    0.11168    0.14551    0.00248      0.07952      0.02169      0.00269      0.07722      0.02448      
12100   0.33724    0.10967    0.14288    0.00288      0.07822      0.01796      0.00328      0.07599      0.01937      
12200   0.34109    0.11092    0.14456    0.00362      0.07810      0.01947      0.00379      0.07570      0.02193      
12300   0.33755    0.10979    0.14311    0.00302      0.07840      0.01617      0.00312      0.07627      0.01922      
12400   0.34038    0.11097    0.14427    0.00232      0.07973      0.01542      0.00276      0.07754      0.01672      
12500   0.33988    0.11058    0.14415    0.00273      0.07888      0.01772      0.00283      0.07677      0.01881      
12600   0.33886    0.11063    0.14346    0.00289      0.07751      0.02183      0.00325      0.07544      0.02081      
12700   0.33000    0.10768    0.13973    0.00275      0.07673      0.01552      0.00319      0.07439      0.01797      
12800   0.32836    0.10685    0.13900    0.00245      0.07680      0.01636      0.00296      0.07489      0.01801      
12900   0.33659    0.10922    0.14239    0.00299      0.07809      0.01952      0.00284      0.07558      0.02021      
13000   0.33239    0.10811    0.14082    0.00295      0.07664      0.01934      0.00312      0.07402      0.02124      
13100   0.33770    0.10990    0.14292    0.00221      0.07872      0.01975      0.00231      0.07633      0.01681      
13200   0.33171    0.10806    0.14071    0.00296      0.07659      0.01695      0.00246      0.07412      0.01905      
13300   0.33343    0.10854    0.14130    0.00292      0.07672      0.01978      0.00324      0.07468      0.01686      
13400   0.32971    0.10720    0.13975    0.00226      0.07655      0.01976      0.00243      0.07471      0.02034      
13500   0.33130    0.10772    0.14041    0.00270      0.07716      0.01655      0.00268      0.07563      0.01949      
13600   0.33021    0.10755    0.14010    0.00201      0.07677      0.01888      0.00245      0.07457      0.02048      
13700   0.33456    0.10882    0.14197    0.00223      0.07770      0.01921      0.00252      0.07553      0.01664      
13800   0.33225    0.10822    0.14100    0.00290      0.07722      0.01459      0.00259      0.07511      0.01616      
13900   0.33177    0.10808    0.14096    0.00248      0.07748      0.01385      0.00283      0.07554      0.01636      
14000   0.33240    0.10831    0.14129    0.00243      0.07673      0.01814      0.00212      0.07490      0.01967      
14100   0.33205    0.10814    0.14130    0.00228      0.07671      0.01810      0.00219      0.07471      0.01889      
14200   0.33490    0.10936    0.14231    0.00278      0.07734      0.01555      0.00270      0.07530      0.01607      
14300   0.33175    0.10821    0.14110    0.00225      0.07715      0.01515      0.00228      0.07509      0.01730      
14400   0.32865    0.10723    0.13991    0.00239      0.07606      0.01528      0.00241      0.07400      0.01740      
14500   0.33547    0.10952    0.14249    0.00334      0.07600      0.02059      0.00384      0.07388      0.02118      
14600   0.32510    0.10585    0.13794    0.00274      0.07526      0.01657      0.00295      0.07329      0.01990      
14700   0.32578    0.10589    0.13819    0.00211      0.07667      0.01458      0.00224      0.07469      0.01694      
14800   0.32556    0.10572    0.13796    0.00264      0.07615      0.01547      0.00262      0.07399      0.01654      
14900   0.32398    0.10511    0.13729    0.00240      0.07579      0.01692      0.00261      0.07365      0.01771      
15000   0.32748    0.10619    0.13864    0.00334      0.07594      0.01681      0.00325      0.07399      0.01755      
15100   0.32573    0.10559    0.13776    0.00214      0.07693      0.01658      0.00243      0.07458      0.01682      
15200   0.32499    0.10542    0.13761    0.00213      0.07587      0.01986      0.00223      0.07374      0.01825      
15300   0.32431    0.10522    0.13721    0.00232      0.07624      0.01657      0.00283      0.07489      0.01701      
15400   0.32352    0.10509    0.13687    0.00210      0.07629      0.01587      0.00240      0.07411      0.01750      
15500   0.32132    0.10437    0.13584    0.00322      0.07496      0.01466      0.00343      0.07324      0.01596      
15600   0.32032    0.10400    0.13539    0.00252      0.07535      0.01534      0.00279      0.07341      0.01539      
15700   0.32114    0.10425    0.13591    0.00276      0.07530      0.01465      0.00264      0.07285      0.01787      
15800   0.31872    0.10323    0.13473    0.00301      0.07456      0.01596      0.00256      0.07254      0.01708      
15900   0.32025    0.10373    0.13546    0.00219      0.07564      0.01610      0.00253      0.07369      0.01904      
16000   0.32097    0.10379    0.13622    0.00243      0.07577      0.01381      0.00233      0.07356      0.01545      
16100   0.32448    0.10481    0.13775    0.00322      0.07573      0.01482      0.00319      0.07378      0.01621      
16200   0.32131    0.10386    0.13626    0.00267      0.07551      0.01504      0.00279      0.07348      0.01642      
16300   0.32000    0.10348    0.13571    0.00213      0.07522      0.01733      0.00229      0.07342      0.01765      
16400   0.31545    0.10199    0.13385    0.00209      0.07435      0.01586      0.00212      0.07243      0.01693      
16500   0.31834    0.10291    0.13500    0.00247      0.07492      0.01526      0.00222      0.07300      0.01688      
16600   0.31758    0.10277    0.13435    0.00251      0.07465      0.01656      0.00303      0.07293      0.01854      
16700   0.31741    0.10257    0.13438    0.00287      0.07445      0.01567      0.00253      0.07262      0.01737      
16800   0.31862    0.10282    0.13490    0.00212      0.07510      0.01840      0.00246      0.07340      0.02276      
16900   0.31538    0.10197    0.13332    0.00282      0.07412      0.01570      0.00283      0.07250      0.01991      
17000   0.31058    0.10036    0.13118    0.00189      0.07404      0.01553      0.00224      0.07193      0.01599      
17100   0.30833    0.09949    0.13008    0.00189      0.07389      0.01491      0.00196      0.07193      0.01684      
17200   0.30996    0.09988    0.13073    0.00261      0.07384      0.01447      0.00278      0.07249      0.01573      
17300   0.30811    0.09928    0.12994    0.00262      0.07330      0.01490      0.00259      0.07150      0.01732      
17400   0.30862    0.09925    0.13006    0.00253      0.07371      0.01533      0.00300      0.07198      0.01727      
17500   0.30764    0.09892    0.12978    0.00255      0.07356      0.01413      0.00275      0.07190      0.01538      
17600   0.30635    0.09836    0.12912    0.00228      0.07428      0.01160      0.00252      0.07249      0.01326      
17700   0.30971    0.09931    0.13048    0.00300      0.07437      0.01274      0.00345      0.07230      0.01323      
17800   0.30462    0.09732    0.12790    0.00238      0.07408      0.01473      0.00272      0.07225      0.01679      
17900   0.30601    0.09793    0.12876    0.00258      0.07364      0.01548      0.00240      0.07200      0.01577      
18000   0.30276    0.09671    0.12741    0.00221      0.07358      0.01423      0.00214      0.07196      0.01650      
18100   0.30280    0.09668    0.12720    0.00227      0.07378      0.01435      0.00234      0.07170      0.01507      
18200   0.30189    0.09655    0.12669    0.00235      0.07316      0.01563      0.00236      0.07152      0.01759      
18300   0.30127    0.09614    0.12642    0.00246      0.07335      0.01453      0.00221      0.07150      0.01556      
18400   0.30170    0.09628    0.12649    0.00225      0.07355      0.01567      0.00234      0.07185      0.01595      
18500   0.29787    0.09503    0.12471    0.00168      0.07308      0.01685      0.00185      0.07083      0.01768      
18600   0.30029    0.09580    0.12575    0.00254      0.07307      0.01561      0.00245      0.07120      0.01578      
18700   0.29962    0.09548    0.12543    0.00280      0.07285      0.01529      0.00262      0.07079      0.01845      
18800   0.29934    0.09529    0.12533    0.00236      0.07300      0.01681      0.00234      0.07133      0.01845      
18900   0.29763    0.09453    0.12442    0.00212      0.07306      0.01749      0.00219      0.07109      0.01957      
19000   0.29552    0.09390    0.12338    0.00221      0.07328      0.01375      0.00190      0.07182      0.01572      
19100   0.29427    0.09332    0.12286    0.00247      0.07266      0.01482      0.00237      0.07100      0.01635      
19200   0.29277    0.09299    0.12230    0.00188      0.07265      0.01476      0.00228      0.07079      0.01782      
19300   0.29678    0.09396    0.12382    0.00190      0.07361      0.01742      0.00200      0.07205      0.01790      
19400   0.29359    0.09312    0.12255    0.00288      0.07232      0.01353      0.00294      0.07075      0.01534      
19500   0.29300    0.09292    0.12211    0.00214      0.07252      0.01652      0.00239      0.07086      0.01639      
19600   0.29016    0.09230    0.12064    0.00158      0.07268      0.01483      0.00175      0.07133      0.01657      
19700   0.28871    0.09170    0.12009    0.00193      0.07159      0.01698      0.00213      0.06988      0.01909      
19800   0.29123    0.09252    0.12122    0.00216      0.07256      0.01389      0.00234      0.07074      0.01695      
19900   0.29169    0.09274    0.12141    0.00220      0.07217      0.01589      0.00234      0.07041      0.01789      
20000   0.29015    0.09216    0.12055    0.00204      0.07243      0.01483      0.00210      0.07079      0.01735      
20100   0.28881    0.09156    0.11995    0.00216      0.07221      0.01464      0.00228      0.07057      0.01686      
20200   0.28955    0.09181    0.12008    0.00248      0.07250      0.01336      0.00285      0.07070      0.01528      
20300   0.28545    0.09055    0.11854    0.00179      0.07197      0.01302      0.00207      0.07047      0.01549      
20400   0.28710    0.09097    0.11914    0.00197      0.07203      0.01500      0.00208      0.07027      0.01666      
20500   0.28943    0.09154    0.12003    0.00202      0.07317      0.01336      0.00242      0.07184      0.01572      
20600   0.28661    0.09073    0.11893    0.00224      0.07137      0.01676      0.00253      0.06984      0.01829      
20700   0.28512    0.09027    0.11803    0.00225      0.07177      0.01402      0.00269      0.07037      0.01583      
20800   0.28419    0.08969    0.11756    0.00260      0.07139      0.01469      0.00252      0.07007      0.01593      
20900   0.28226    0.08871    0.11651    0.00195      0.07239      0.01352      0.00239      0.07113      0.01491      
21000   0.28167    0.08830    0.11597    0.00202      0.07199      0.01701      0.00240      0.07017      0.01911      
21100   0.28142    0.08840    0.11592    0.00176      0.07214      0.01604      0.00204      0.07042      0.01677      
21200   0.27738    0.08700    0.11425    0.00195      0.07143      0.01372      0.00218      0.06955      0.01599      
21300   0.27888    0.08743    0.11480    0.00256      0.07128      0.01401      0.00255      0.06950      0.01551      
21400   0.27716    0.08680    0.11392    0.00178      0.07187      0.01393      0.00202      0.07008      0.01575      
21500   0.27755    0.08666    0.11405    0.00202      0.07213      0.01344      0.00216      0.07045      0.01460      
21600   0.27485    0.08557    0.11268    0.00214      0.07138      0.01539      0.00257      0.06984      0.01592      
21700   0.27343    0.08518    0.11207    0.00196      0.07170      0.01255      0.00214      0.07003      0.01416      
21800   0.26989    0.08405    0.11063    0.00177      0.07068      0.01380      0.00203      0.06902      0.01686      
21900   0.26803    0.08345    0.10982    0.00207      0.07017      0.01265      0.00216      0.06812      0.01450      
22000   0.27008    0.08407    0.11039    0.00193      0.07096      0.01370      0.00209      0.06935      0.01536      
22100   0.27084    0.08423    0.11060    0.00220      0.07099      0.01405      0.00227      0.06963      0.01681      
22200   0.27116    0.08400    0.11046    0.00217      0.07153      0.01497      0.00252      0.06958      0.01748      
22300   0.27001    0.08382    0.11006    0.00254      0.07063      0.01477      0.00251      0.06920      0.01658      
22400   0.26661    0.08267    0.10850    0.00225      0.07020      0.01497      0.00218      0.06865      0.01771      
22500   0.26489    0.08206    0.10793    0.00214      0.07029      0.01240      0.00235      0.06910      0.01426      
22600   0.26428    0.08177    0.10747    0.00185      0.07028      0.01453      0.00200      0.06892      0.01679      
22700   0.26254    0.08130    0.10666    0.00187      0.06988      0.01416      0.00221      0.06841      0.01685      
22800   0.26097    0.08072    0.10593    0.00184      0.06994      0.01273      0.00191      0.06867      0.01538      
22900   0.26215    0.08116    0.10636    0.00175      0.06982      0.01528      0.00198      0.06849      0.01541      
23000   0.25898    0.08024    0.10505    0.00168      0.06932      0.01346      0.00186      0.06807      0.01610      
23100   0.26155    0.08106    0.10598    0.00191      0.06950      0.01547      0.00187      0.06788      0.01573      
23200   0.26341    0.08174    0.10653    0.00216      0.07003      0.01482      0.00226      0.06847      0.01751      
23300   0.25871    0.08017    0.10485    0.00214      0.06901      0.01269      0.00220      0.06779      0.01546      
23400   0.25838    0.07974    0.10442    0.00236      0.06938      0.01240      0.00241      0.06829      0.01408      
23500   0.25710    0.07930    0.10389    0.00209      0.06901      0.01407      0.00211      0.06745      0.01626      
23600   0.25939    0.08007    0.10489    0.00254      0.06906      0.01411      0.00226      0.06761      0.01555      
23700   0.25597    0.07884    0.10315    0.00191      0.06952      0.01276      0.00219      0.06800      0.01530      
23800   0.25712    0.07920    0.10360    0.00204      0.06937      0.01457      0.00229      0.06798      0.01708      
23900   0.25480    0.07808    0.10219    0.00181      0.07008      0.01325      0.00194      0.06855      0.01571      
24000   0.25351    0.07751    0.10172    0.00245      0.06926      0.01289      0.00292      0.06801      0.01600      
24100   0.25269    0.07762    0.10146    0.00221      0.06876      0.01322      0.00231      0.06739      0.01523      
24200   0.25231    0.07739    0.10127    0.00204      0.06859      0.01514      0.00232      0.06722      0.01699      
24300   0.25136    0.07698    0.10085    0.00195      0.06897      0.01306      0.00216      0.06737      0.01502      
24400   0.25020    0.07654    0.10032    0.00239      0.06844      0.01254      0.00238      0.06707      0.01368      
24500   0.25029    0.07651    0.10048    0.00177      0.06875      0.01385      0.00212      0.06754      0.01618      
24600   0.24958    0.07626    0.09994    0.00224      0.06880      0.01165      0.00238      0.06755      0.01368      
24700   0.24701    0.07534    0.09869    0.00179      0.06845      0.01375      0.00208      0.06704      0.01510      
24800   0.24862    0.07571    0.09921    0.00244      0.06825      0.01501      0.00271      0.06710      0.01709      
24900   0.24757    0.07526    0.09893    0.00235      0.06848      0.01278      0.00254      0.06711      0.01515      
25000   0.24635    0.07469    0.09848    0.00195      0.06813      0.01551      0.00234      0.06667      0.01712      
25100   0.24667    0.07504    0.09836    0.00201      0.06846      0.01395      0.00242      0.06736      0.01604      
25200   0.24526    0.07447    0.09765    0.00207      0.06836      0.01356      0.00226      0.06704      0.01509      
25300   0.24198    0.07311    0.09629    0.00191      0.06800      0.01336      0.00216      0.06667      0.01592      
25400   0.24241    0.07334    0.09635    0.00194      0.06794      0.01425      0.00221      0.06686      0.01629      
25500   0.24274    0.07328    0.09641    0.00217      0.06841      0.01234      0.00252      0.06736      0.01461      
25600   0.24151    0.07259    0.09581    0.00182      0.06862      0.01338      0.00197      0.06740      0.01522      
25700   0.24210    0.07279    0.09604    0.00204      0.06874      0.01249      0.00243      0.06756      0.01460      
25800   0.24077    0.07237    0.09543    0.00178      0.06858      0.01305      0.00209      0.06755      0.01530      
25900   0.23893    0.07155    0.09476    0.00178      0.06827      0.01284      0.00202      0.06702      0.01538      
26000   0.23886    0.07114    0.09426    0.00208      0.06869      0.01345      0.00227      0.06743      0.01480      
26100   0.23815    0.07104    0.09424    0.00188      0.06841      0.01289      0.00216      0.06734      0.01552      
26200   0.23903    0.07121    0.09442    0.00205      0.06866      0.01348      0.00225      0.06748      0.01568      
26300   0.23646    0.07039    0.09324    0.00218      0.06784      0.01401      0.00246      0.06663      0.01553      
26400   0.23557    0.07002    0.09271    0.00201      0.06829      0.01269      0.00217      0.06716      0.01448      
26500   0.23499    0.06971    0.09240    0.00220      0.06807      0.01306      0.00243      0.06698      0.01544      
26600   0.23419    0.06963    0.09217    0.00174      0.06782      0.01414      0.00198      0.06666      0.01506      
26700   0.23325    0.06928    0.09170    0.00199      0.06746      0.01406      0.00236      0.06623      0.01652      
26800   0.23267    0.06902    0.09144    0.00209      0.06757      0.01272      0.00252      0.06650      0.01568      
26900   0.23353    0.06906    0.09152    0.00210      0.06825      0.01304      0.00257      0.06698      0.01589      
27000   0.23196    0.06870    0.09100    0.00190      0.06772      0.01322      0.00202      0.06611      0.01524      
27100   0.23227    0.06870    0.09095    0.00199      0.06812      0.01254      0.00236      0.06706      0.01529      
27200   0.23070    0.06826    0.09049    0.00179      0.06781      0.01174      0.00199      0.06665      0.01444      
27300   0.23225    0.06877    0.09113    0.00173      0.06809      0.01261      0.00194      0.06695      0.01496      
27400   0.23170    0.06836    0.09076    0.00225      0.06774      0.01297      0.00213      0.06645      0.01493      
27500   0.23251    0.06867    0.09102    0.00193      0.06831      0.01292      0.00206      0.06704      0.01439      
27600   0.23027    0.06794    0.09037    0.00185      0.06766      0.01223      0.00208      0.06651      0.01485      
27700   0.22898    0.06758    0.08983    0.00168      0.06762      0.01132      0.00190      0.06645      0.01377      
27800   0.22846    0.06712    0.08959    0.00156      0.06760      0.01298      0.00187      0.06663      0.01512      
27900   0.22840    0.06700    0.08962    0.00202      0.06727      0.01245      0.00222      0.06602      0.01489      
28000   0.22717    0.06668    0.08898    0.00160      0.06731      0.01303      0.00179      0.06625      0.01502      
28100   0.22776    0.06702    0.08907    0.00160      0.06752      0.01280      0.00187      0.06642      0.01400      
28200   0.22834    0.06702    0.08922    0.00163      0.06782      0.01325      0.00191      0.06670      0.01535      
28300   0.22783    0.06678    0.08883    0.00161      0.06793      0.01337      0.00185      0.06694      0.01621      
28400   0.22738    0.06657    0.08863    0.00164      0.06803      0.01253      0.00184      0.06667      0.01449      
28500   0.22510    0.06572    0.08770    0.00170      0.06749      0.01245      0.00195      0.06641      0.01481      
28600   0.22383    0.06517    0.08703    0.00170      0.06764      0.01141      0.00193      0.06665      0.01416      
28700   0.22473    0.06555    0.08722    0.00194      0.06765      0.01185      0.00207      0.06643      0.01415      
28800   0.22542    0.06582    0.08741    0.00207      0.06762      0.01250      0.00208      0.06652      0.01561      
28900   0.22380    0.06523    0.08684    0.00163      0.06735      0.01374      0.00193      0.06633      0.01547      
29000   0.22340    0.06494    0.08652    0.00166      0.06778      0.01249      0.00192      0.06661      0.01433      
29100   0.22320    0.06489    0.08623    0.00211      0.06740      0.01286      0.00226      0.06615      0.01497      
29200   0.22314    0.06501    0.08631    0.00216      0.06732      0.01172      0.00219      0.06610      0.01434      
29300   0.22254    0.06479    0.08599    0.00172      0.06772      0.01162      0.00207      0.06669      0.01376      
29400   0.22155    0.06439    0.08544    0.00181      0.06760      0.01159      0.00205      0.06646      0.01335      
29500   0.22107    0.06418    0.08522    0.00183      0.06747      0.01187      0.00210      0.06627      0.01410      
29600   0.22089    0.06403    0.08514    0.00205      0.06719      0.01239      0.00225      0.06597      0.01443      
29700   0.22061    0.06407    0.08515    0.00182      0.06727      0.01151      0.00192      0.06593      0.01362      
29800   0.21973    0.06349    0.08483    0.00188      0.06728      0.01129      0.00218      0.06620      0.01331      
29900   0.21829    0.06293    0.08407    0.00187      0.06688      0.01263      0.00218      0.06574      0.01365      
30000   0.21865    0.06294    0.08402    0.00243      0.06685      0.01203      0.00263      0.06580      0.01436      
30100   0.21828    0.06296    0.08384    0.00173      0.06714      0.01307      0.00183      0.06588      0.01511      
30200   0.21821    0.06293    0.08387    0.00190      0.06704      0.01237      0.00205      0.06581      0.01371      
30300   0.21620    0.06232    0.08291    0.00181      0.06687      0.01147      0.00205      0.06566      0.01377      
30400   0.21639    0.06243    0.08288    0.00174      0.06706      0.01138      0.00194      0.06554      0.01326      
30500   0.21588    0.06218    0.08274    0.00195      0.06670      0.01160      0.00220      0.06534      0.01317      
30600   0.21456    0.06163    0.08215    0.00184      0.06666      0.01140      0.00214      0.06545      0.01367      
30700   0.21506    0.06183    0.08239    0.00172      0.06679      0.01167      0.00192      0.06554      0.01298      
30800   0.21338    0.06126    0.08164    0.00158      0.06661      0.01143      0.00187      0.06545      0.01297      
30900   0.21555    0.06191    0.08247    0.00176      0.06705      0.01180      0.00194      0.06603      0.01311      
31000   0.21514    0.06175    0.08227    0.00193      0.06702      0.01092      0.00193      0.06569      0.01214      
31100   0.21140    0.06059    0.08077    0.00167      0.06618      0.01088      0.00195      0.06513      0.01205      
31200   0.21298    0.06100    0.08128    0.00168      0.06677      0.01121      0.00198      0.06562      0.01320      
31300   0.21270    0.06077    0.08119    0.00187      0.06666      0.01112      0.00225      0.06566      0.01342      
31400   0.21175    0.06050    0.08060    0.00174      0.06644      0.01237      0.00198      0.06535      0.01354      
31500   0.21148    0.06029    0.08042    0.00215      0.06627      0.01176      0.00245      0.06513      0.01372      
31600   0.20974    0.05963    0.07973    0.00170      0.06638      0.01149      0.00202      0.06529      0.01342      
31700   0.20936    0.05947    0.07952    0.00172      0.06635      0.01149      0.00200      0.06513      0.01314      
31800   0.20979    0.05930    0.07943    0.00160      0.06664      0.01407      0.00191      0.06563      0.01688      
31900   0.20803    0.05898    0.07900    0.00178      0.06588      0.01193      0.00210      0.06488      0.01436      
32000   0.20862    0.05912    0.07924    0.00185      0.06616      0.01128      0.00215      0.06526      0.01304      
32100   0.20931    0.05963    0.07939    0.00165      0.06611      0.01263      0.00205      0.06490      0.01462      
32200   0.20984    0.05967    0.07948    0.00179      0.06672      0.01087      0.00183      0.06549      0.01327      
32300   0.20906    0.05940    0.07922    0.00167      0.06628      0.01249      0.00193      0.06517      0.01506      
32400   0.20891    0.05935    0.07914    0.00177      0.06636      0.01143      0.00191      0.06514      0.01325      
32500   0.20803    0.05881    0.07865    0.00178      0.06613      0.01331      0.00214      0.06504      0.01575      
32600   0.20623    0.05822    0.07804    0.00185      0.06585      0.01136      0.00203      0.06471      0.01301      
32700   0.20577    0.05800    0.07773    0.00184      0.06589      0.01153      0.00194      0.06469      0.01308      
32800   0.20604    0.05815    0.07785    0.00172      0.06616      0.01083      0.00203      0.06509      0.01240      
32900   0.20541    0.05785    0.07752    0.00169      0.06608      0.01134      0.00197      0.06512      0.01382      
33000   0.20605    0.05793    0.07757    0.00185      0.06658      0.01062      0.00210      0.06552      0.01290      
33100   0.20497    0.05744    0.07716    0.00175      0.06623      0.01193      0.00193      0.06521      0.01363      
33200   0.20406    0.05714    0.07673    0.00169      0.06633      0.01084      0.00197      0.06532      0.01321      
33300   0.20355    0.05691    0.07639    0.00176      0.06619      0.01153      0.00205      0.06520      0.01403      
33400   0.20375    0.05700    0.07642    0.00168      0.06627      0.01191      0.00194      0.06530      0.01461      
33500   0.20239    0.05649    0.07586    0.00176      0.06579      0.01240      0.00199      0.06482      0.01398      
33600   0.20117    0.05609    0.07538    0.00171      0.06570      0.01145      0.00202      0.06449      0.01419      
33700   0.20258    0.05646    0.07579    0.00169      0.06639      0.01124      0.00200      0.06540      0.01416      
33800   0.20285    0.05649    0.07570    0.00189      0.06653      0.01124      0.00216      0.06549      0.01410      
33900   0.20113    0.05579    0.07503    0.00155      0.06622      0.01273      0.00174      0.06523      0.01508      
34000   0.20208    0.05624    0.07550    0.00190      0.06607      0.01184      0.00183      0.06511      0.01434      
34100   0.20090    0.05592    0.07500    0.00179      0.06582      0.01183      0.00203      0.06474      0.01424      
34200   0.19958    0.05559    0.07443    0.00178      0.06552      0.01133      0.00204      0.06441      0.01387      
34300   0.20066    0.05582    0.07480    0.00194      0.06572      0.01201      0.00226      0.06475      0.01362      
34400   0.19954    0.05561    0.07448    0.00167      0.06564      0.01067      0.00193      0.06457      0.01295      
34500   0.19943    0.05538    0.07454    0.00167      0.06556      0.01146      0.00189      0.06460      0.01366      
34600   0.19946    0.05536    0.07436    0.00173      0.06586      0.01079      0.00193      0.06497      0.01301      
34700   0.19865    0.05523    0.07409    0.00168      0.06541      0.01120      0.00201      0.06457      0.01362      
34800   0.19907    0.05506    0.07413    0.00177      0.06573      0.01187      0.00210      0.06469      0.01364      
34900   0.19867    0.05510    0.07397    0.00192      0.06544      0.01121      0.00211      0.06451      0.01391      
35000   0.19912    0.05527    0.07416    0.00178      0.06568      0.01119      0.00209      0.06467      0.01356      
35100   0.19838    0.05503    0.07381    0.00195      0.06534      0.01126      0.00226      0.06433      0.01347      
35200   0.19966    0.05552    0.07431    0.00163      0.06552      0.01342      0.00188      0.06450      0.01481      
35300   0.19858    0.05530    0.07378    0.00188      0.06515      0.01239      0.00227      0.06413      0.01461      
35400   0.19736    0.05473    0.07317    0.00188      0.06513      0.01230      0.00214      0.06414      0.01408      
35500   0.19678    0.05445    0.07301    0.00172      0.06542      0.01090      0.00208      0.06449      0.01332      
35600   0.19749    0.05455    0.07327    0.00176      0.06516      0.01377      0.00193      0.06428      0.01548      
35700   0.19666    0.05438    0.07283    0.00159      0.06543      0.01213      0.00184      0.06454      0.01384      
35800   0.19515    0.05383    0.07221    0.00189      0.06486      0.01178      0.00219      0.06389      0.01374      
35900   0.19469    0.05335    0.07193    0.00181      0.06542      0.01095      0.00215      0.06465      0.01324      
36000   0.19382    0.05300    0.07151    0.00171      0.06536      0.01118      0.00200      0.06455      0.01315      
36100   0.19386    0.05298    0.07146    0.00171      0.06532      0.01194      0.00190      0.06443      0.01393      
36200   0.19365    0.05272    0.07122    0.00151      0.06568      0.01261      0.00172      0.06460      0.01451      
36300   0.19256    0.05255    0.07086    0.00192      0.06500      0.01120      0.00219      0.06412      0.01336      
36400   0.19181    0.05213    0.07058    0.00168      0.06513      0.01150      0.00201      0.06413      0.01347      
36500   0.19227    0.05224    0.07066    0.00166      0.06508      0.01321      0.00194      0.06388      0.01459      
36600   0.19095    0.05169    0.06995    0.00166      0.06515      0.01253      0.00191      0.06409      0.01469      
36700   0.19007    0.05134    0.06977    0.00171      0.06490      0.01179      0.00205      0.06390      0.01356      
36800   0.19055    0.05156    0.06988    0.00178      0.06514      0.01095      0.00219      0.06402      0.01335      
36900   0.18990    0.05125    0.06957    0.00156      0.06527      0.01124      0.00173      0.06426      0.01345      
37000   0.18968    0.05121    0.06943    0.00177      0.06513      0.01070      0.00198      0.06425      0.01306      
37100   0.18892    0.05086    0.06912    0.00160      0.06510      0.01117      0.00180      0.06408      0.01360      
37200   0.18850    0.05069    0.06890    0.00188      0.06478      0.01123      0.00208      0.06371      0.01364      
37300   0.18789    0.05049    0.06867    0.00166      0.06467      0.01206      0.00181      0.06364      0.01408      
37400   0.18935    0.05098    0.06911    0.00176      0.06499      0.01256      0.00193      0.06395      0.01470      
37500   0.18840    0.05080    0.06888    0.00172      0.06474      0.01125      0.00198      0.06382      0.01442      
37600   0.18863    0.05087    0.06888    0.00162      0.06496      0.01153      0.00185      0.06395      0.01407      
37700   0.18862    0.05090    0.06896    0.00160      0.06487      0.01141      0.00176      0.06376      0.01336      
37800   0.18792    0.05047    0.06846    0.00179      0.06505      0.01077      0.00200      0.06422      0.01278      
37900   0.18750    0.05045    0.06835    0.00169      0.06489      0.01060      0.00205      0.06384      0.01312      
38000   0.18707    0.05028    0.06814    0.00175      0.06467      0.01116      0.00200      0.06376      0.01333      
38100   0.18584    0.04980    0.06763    0.00163      0.06465      0.01067      0.00192      0.06371      0.01279      
38200   0.18533    0.04946    0.06719    0.00215      0.06430      0.01119      0.00211      0.06332      0.01299      
38300   0.18505    0.04927    0.06723    0.00175      0.06457      0.01114      0.00211      0.06367      0.01343      
38400   0.18600    0.04976    0.06755    0.00156      0.06486      0.01132      0.00185      0.06388      0.01312      
38500   0.18569    0.04971    0.06744    0.00168      0.06466      0.01106      0.00183      0.06370      0.01300      
38600   0.18562    0.04970    0.06740    0.00163      0.06468      0.01103      0.00181      0.06381      0.01321      
38700   0.18658    0.04988    0.06770    0.00163      0.06492      0.01222      0.00178      0.06403      0.01388      
38800   0.18523    0.04956    0.06715    0.00164      0.06469      0.01097      0.00191      0.06383      0.01285      
38900   0.18452    0.04925    0.06670    0.00160      0.06470      0.01134      0.00182      0.06374      0.01308      
39000   0.18398    0.04903    0.06650    0.00180      0.06434      0.01155      0.00211      0.06345      0.01306      
39100   0.18363    0.04891    0.06621    0.00170      0.06450      0.01158      0.00169      0.06348      0.01325      
39200   0.18309    0.04868    0.06597    0.00178      0.06445      0.01097      0.00199      0.06346      0.01274      
39300   0.18336    0.04861    0.06605    0.00157      0.06465      0.01242      0.00186      0.06388      0.01493      
39400   0.18282    0.04838    0.06566    0.00193      0.06462      0.01112      0.00218      0.06378      0.01307      
39500   0.18260    0.04810    0.06564    0.00179      0.06470      0.01186      0.00184      0.06382      0.01407      
39600   0.18168    0.04801    0.06532    0.00161      0.06443      0.01155      0.00187      0.06349      0.01332      
39700   0.18231    0.04812    0.06550    0.00152      0.06488      0.01145      0.00172      0.06397      0.01340      
39800   0.18160    0.04800    0.06530    0.00158      0.06460      0.01059      0.00181      0.06353      0.01277      
39900   0.18119    0.04774    0.06493    0.00157      0.06474      0.01107      0.00176      0.06367      0.01251      
40000   0.18209    0.04811    0.06539    0.00170      0.06469      0.01097      0.00172      0.06372      0.01336      
40100   0.18250    0.04844    0.06550    0.00165      0.06474      0.01081      0.00195      0.06375      0.01326      
40200   0.18221    0.04828    0.06533    0.00166      0.06461      0.01166      0.00187      0.06347      0.01374      
40300   0.18230    0.04827    0.06527    0.00147      0.06513      0.01085      0.00175      0.06416      0.01339      
40400   0.18213    0.04824    0.06529    0.00157      0.06452      0.01254      0.00177      0.06352      0.01480      
40500   0.18082    0.04778    0.06481    0.00173      0.06423      0.01136      0.00182      0.06303      0.01321      
40600   0.18011    0.04740    0.06435    0.00163      0.06450      0.01108      0.00193      0.06347      0.01326      
40700   0.17988    0.04738    0.06422    0.00164      0.06446      0.01091      0.00197      0.06337      0.01302      
40800   0.17932    0.04692    0.06396    0.00201      0.06416      0.01128      0.00189      0.06312      0.01384      
40900   0.17956    0.04713    0.06418    0.00175      0.06430      0.01097      0.00200      0.06338      0.01266      
41000   0.18079    0.04760    0.06459    0.00155      0.06475      0.01156      0.00183      0.06375      0.01395      
41100   0.17992    0.04736    0.06424    0.00173      0.06441      0.01087      0.00207      0.06340      0.01331      
41200   0.17950    0.04718    0.06406    0.00156      0.06453      0.01081      0.00179      0.06351      0.01315      
41300   0.17968    0.04724    0.06418    0.00146      0.06470      0.01048      0.00166      0.06370      0.01309      
41400   0.17928    0.04693    0.06385    0.00175      0.06435      0.01205      0.00202      0.06340      0.01414      
41500   0.17883    0.04688    0.06382    0.00161      0.06434      0.01090      0.00185      0.06332      0.01325      
41600   0.17830    0.04661    0.06359    0.00148      0.06444      0.01093      0.00173      0.06342      0.01304      
41700   0.17758    0.04647    0.06316    0.00142      0.06426      0.01137      0.00160      0.06321      0.01396      
41800   0.17739    0.04632    0.06317    0.00166      0.06405      0.01101      0.00184      0.06316      0.01353      
41900   0.17645    0.04595    0.06259    0.00152      0.06398      0.01204      0.00172      0.06313      0.01475      
42000   0.17687    0.04608    0.06275    0.00154      0.06444      0.01030      0.00182      0.06361      0.01272      
42100   0.17644    0.04594    0.06259    0.00162      0.06396      0.01164      0.00191      0.06309      0.01366      
42200   0.17653    0.04575    0.06251    0.00164      0.06437      0.01130      0.00194      0.06323      0.01324      
42300   0.17547    0.04534    0.06202    0.00157      0.06432      0.01104      0.00181      0.06342      0.01302      
42400   0.17509    0.04512    0.06185    0.00160      0.06433      0.01096      0.00185      0.06329      0.01341      
42500   0.17511    0.04519    0.06183    0.00160      0.06408      0.01204      0.00192      0.06305      0.01342      
42600   0.17403    0.04487    0.06137    0.00155      0.06406      0.01096      0.00180      0.06303      0.01304      
42700   0.17260    0.04404    0.06081    0.00155      0.06397      0.01120      0.00166      0.06290      0.01373      
42800   0.17305    0.04420    0.06088    0.00168      0.06406      0.01111      0.00190      0.06308      0.01390      
42900   0.17270    0.04405    0.06078    0.00146      0.06417      0.01120      0.00158      0.06310      0.01378      
43000   0.17315    0.04421    0.06098    0.00152      0.06415      0.01141      0.00166      0.06302      0.01406      
43100   0.17259    0.04395    0.06075    0.00165      0.06413      0.01049      0.00181      0.06306      0.01295      
43200   0.17237    0.04378    0.06048    0.00154      0.06429      0.01143      0.00168      0.06338      0.01263      
43300   0.17191    0.04373    0.06044    0.00160      0.06390      0.01122      0.00187      0.06301      0.01221      
43400   0.17215    0.04382    0.06052    0.00162      0.06402      0.01085      0.00188      0.06304      0.01272      
43500   0.17171    0.04363    0.06024    0.00150      0.06414      0.01103      0.00173      0.06316      0.01294      
43600   0.17124    0.04325    0.06000    0.00158      0.06419      0.01108      0.00172      0.06329      0.01308      
43700   0.17155    0.04350    0.06017    0.00160      0.06418      0.01050      0.00182      0.06322      0.01268      
43800   0.17195    0.04368    0.06027    0.00163      0.06414      0.01112      0.00183      0.06320      0.01345      
43900   0.17165    0.04364    0.06019    0.00176      0.06402      0.01014      0.00205      0.06309      0.01202      
44000   0.17171    0.04363    0.06009    0.00199      0.06388      0.01057      0.00219      0.06293      0.01228      
44100   0.17180    0.04367    0.06018    0.00161      0.06430      0.01021      0.00170      0.06327      0.01255      
44200   0.17168    0.04370    0.06018    0.00160      0.06411      0.01042      0.00181      0.06299      0.01259      
44300   0.17166    0.04376    0.06015    0.00154      0.06396      0.01124      0.00175      0.06291      0.01355      
44400   0.17132    0.04348    0.05978    0.00174      0.06413      0.01094      0.00191      0.06319      0.01296      
44500   0.17167    0.04359    0.05998    0.00177      0.06403      0.01148      0.00194      0.06307      0.01301      
44600   0.17117    0.04334    0.05963    0.00153      0.06416      0.01256      0.00176      0.06321      0.01424      
44700   0.16925    0.04269    0.05887    0.00143      0.06398      0.01140      0.00164      0.06292      0.01320      
44800   0.16906    0.04259    0.05872    0.00168      0.06390      0.01082      0.00179      0.06293      0.01347      
44900   0.16914    0.04265    0.05877    0.00161      0.06399      0.01055      0.00169      0.06302      0.01298      
45000   0.16855    0.04244    0.05847    0.00173      0.06380      0.01057      0.00197      0.06281      0.01266      
45100   0.16924    0.04258    0.05869    0.00158      0.06418      0.01100      0.00174      0.06315      0.01307      
45200   0.16965    0.04272    0.05895    0.00163      0.06394      0.01203      0.00179      0.06297      0.01439      
45300   0.16893    0.04259    0.05884    0.00147      0.06370      0.01161      0.00171      0.06258      0.01399      
45400   0.16955    0.04287    0.05901    0.00157      0.06400      0.01052      0.00183      0.06281      0.01276      
45500   0.16920    0.04272    0.05886    0.00145      0.06399      0.01088      0.00167      0.06291      0.01298      
45600   0.16973    0.04276    0.05884    0.00180      0.06395      0.01191      0.00194      0.06286      0.01397      
45700   0.16925    0.04278    0.05882    0.00176      0.06364      0.01125      0.00206      0.06259      0.01398      
45800   0.16870    0.04262    0.05859    0.00147      0.06355      0.01240      0.00169      0.06250      0.01474      
45900   0.16845    0.04254    0.05848    0.00173      0.06344      0.01127      0.00208      0.06247      0.01374      
46000   0.16878    0.04263    0.05856    0.00163      0.06375      0.01101      0.00192      0.06285      0.01362      
46100   0.16899    0.04279    0.05875    0.00150      0.06365      0.01148      0.00170      0.06261      0.01394      
46200   0.16805    0.04211    0.05817    0.00159      0.06350      0.01338      0.00175      0.06259      0.01622      
46300   0.16709    0.04188    0.05793    0.00160      0.06341      0.01133      0.00182      0.06244      0.01346      
46400   0.16707    0.04179    0.05779    0.00145      0.06370      0.01175      0.00167      0.06259      0.01405      
46500   0.16715    0.04185    0.05780    0.00174      0.06336      0.01201      0.00198      0.06247      0.01430      
46600   0.16639    0.04148    0.05752    0.00148      0.06363      0.01143      0.00180      0.06269      0.01392      
46700   0.16624    0.04150    0.05752    0.00156      0.06332      0.01169      0.00192      0.06243      0.01417      
46800   0.16661    0.04165    0.05762    0.00159      0.06349      0.01129      0.00180      0.06252      0.01361      
46900   0.16615    0.04138    0.05732    0.00155      0.06353      0.01182      0.00176      0.06247      0.01368      
47000   0.16559    0.04138    0.05727    0.00143      0.06336      0.01080      0.00162      0.06234      0.01306      
47100   0.16566    0.04122    0.05716    0.00160      0.06354      0.01067      0.00173      0.06257      0.01322      
47200   0.16500    0.04108    0.05694    0.00151      0.06320      0.01135      0.00174      0.06220      0.01342      
47300   0.16468    0.04088    0.05682    0.00141      0.06331      0.01129      0.00167      0.06235      0.01326      
47400   0.16461    0.04089    0.05678    0.00153      0.06323      0.01090      0.00185      0.06223      0.01339      
47500   0.16487    0.04072    0.05670    0.00155      0.06348      0.01212      0.00172      0.06254      0.01399      
47600   0.16524    0.04096    0.05690    0.00153      0.06348      0.01184      0.00174      0.06239      0.01426      
47700   0.16464    0.04075    0.05665    0.00156      0.06345      0.01115      0.00188      0.06225      0.01330      
47800   0.16484    0.04085    0.05666    0.00147      0.06349      0.01177      0.00173      0.06266      0.01365      
47900   0.16487    0.04088    0.05667    0.00153      0.06353      0.01126      0.00177      0.06250      0.01369      
48000   0.16473    0.04076    0.05658    0.00153      0.06372      0.01069      0.00178      0.06262      0.01309      
48100   0.16387    0.04038    0.05626    0.00155      0.06344      0.01118      0.00186      0.06252      0.01361      
48200   0.16348    0.04023    0.05601    0.00161      0.06351      0.01057      0.00190      0.06251      0.01293      
48300   0.16431    0.04032    0.05629    0.00178      0.06366      0.01130      0.00192      0.06269      0.01372      
48400   0.16292    0.03998    0.05578    0.00142      0.06359      0.01077      0.00168      0.06250      0.01317      
48500   0.16383    0.04018    0.05608    0.00155      0.06378      0.01123      0.00177      0.06269      0.01374      
48600   0.16331    0.04007    0.05590    0.00157      0.06371      0.01024      0.00171      0.06287      0.01271      
48700   0.16299    0.03988    0.05584    0.00149      0.06362      0.01078      0.00174      0.06254      0.01319      
48800   0.16235    0.03956    0.05549    0.00156      0.06362      0.01062      0.00186      0.06253      0.01313      
48900   0.16153    0.03941    0.05517    0.00145      0.06333      0.01089      0.00173      0.06222      0.01354      
49000   0.16191    0.03931    0.05519    0.00177      0.06347      0.01080      0.00177      0.06236      0.01352      
49100   0.16130    0.03911    0.05502    0.00153      0.06345      0.01096      0.00175      0.06233      0.01330      
49200   0.16084    0.03899    0.05487    0.00155      0.06328      0.01077      0.00182      0.06224      0.01316      
49300   0.16089    0.03903    0.05491    0.00166      0.06315      0.01070      0.00175      0.06219      0.01286      
49400   0.16090    0.03916    0.05490    0.00158      0.06312      0.01071      0.00185      0.06225      0.01291      
49500   0.16025    0.03894    0.05469    0.00151      0.06312      0.01000      0.00175      0.06219      0.01223      
49600   0.16124    0.03923    0.05502    0.00155      0.06319      0.01126      0.00173      0.06217      0.01320      
49700   0.16135    0.03926    0.05509    0.00162      0.06323      0.01078      0.00179      0.06219      0.01318      
49800   0.16138    0.03931    0.05503    0.00149      0.06330      0.01121      0.00166      0.06241      0.01342      
49900   0.16125    0.03955    0.05501    0.00155      0.06298      0.01079      0.00174      0.06194      0.01339      
50000   0.16097    0.03935    0.05490    0.00160      0.06298      0.01068      0.00183      0.06183      0.01289      
50100   0.16156    0.03956    0.05506    0.00166      0.06316      0.01063      0.00192      0.06217      0.01282      
50200   0.16157    0.03965    0.05515    0.00149      0.06308      0.01102      0.00174      0.06201      0.01280      
50300   0.16172    0.03961    0.05515    0.00160      0.06304      0.01155      0.00175      0.06202      0.01372      
50400   0.16200    0.03970    0.05521    0.00156      0.06330      0.01120      0.00169      0.06224      0.01333      
50500   0.16182    0.03970    0.05524    0.00148      0.06318      0.01111      0.00163      0.06221      0.01361      
50600   0.16161    0.03958    0.05505    0.00143      0.06323      0.01161      0.00161      0.06226      0.01387      
50700   0.16120    0.03941    0.05493    0.00143      0.06328      0.01073      0.00159      0.06226      0.01330      
50800   0.16207    0.03970    0.05524    0.00156      0.06343      0.01071      0.00171      0.06235      0.01299      
50900   0.16185    0.03971    0.05506    0.00160      0.06326      0.01107      0.00175      0.06233      0.01349      
51000   0.16179    0.03956    0.05513    0.00181      0.06324      0.01028      0.00165      0.06231      0.01286      
51100   0.16156    0.03962    0.05503    0.00141      0.06323      0.01136      0.00168      0.06234      0.01323      
51200   0.16129    0.03961    0.05488    0.00143      0.06319      0.01088      0.00169      0.06228      0.01352      
51300   0.16064    0.03928    0.05453    0.00144      0.06321      0.01091      0.00161      0.06229      0.01360      
51400   0.16018    0.03895    0.05432    0.00145      0.06322      0.01121      0.00166      0.06226      0.01363      
51500   0.15969    0.03874    0.05415    0.00151      0.06309      0.01101      0.00175      0.06220      0.01299      
51600   0.15949    0.03869    0.05398    0.00160      0.06305      0.01083      0.00186      0.06210      0.01302      
51700   0.15950    0.03868    0.05400    0.00154      0.06304      0.01124      0.00165      0.06213      0.01369      
51800   0.15962    0.03886    0.05410    0.00168      0.06291      0.01038      0.00188      0.06193      0.01246      
51900   0.15921    0.03854    0.05388    0.00152      0.06315      0.01054      0.00175      0.06228      0.01276      
52000   0.15822    0.03808    0.05342    0.00165      0.06291      0.01076      0.00187      0.06199      0.01279      
52100   0.15779    0.03802    0.05337    0.00156      0.06286      0.00992      0.00180      0.06191      0.01214      
52200   0.15792    0.03785    0.05334    0.00172      0.06284      0.01086      0.00199      0.06195      0.01263      
52300   0.15708    0.03751    0.05301    0.00153      0.06290      0.01065      0.00176      0.06193      0.01269      
52400   0.15765    0.03778    0.05317    0.00152      0.06288      0.01153      0.00170      0.06191      0.01303      
52500   0.15758    0.03771    0.05305    0.00147      0.06307      0.01143      0.00166      0.06205      0.01373      
52600   0.15725    0.03762    0.05297    0.00161      0.06287      0.01090      0.00191      0.06195      0.01304      
52700   0.15694    0.03763    0.05287    0.00166      0.06267      0.01055      0.00199      0.06179      0.01310      
52800   0.15715    0.03757    0.05291    0.00153      0.06293      0.01101      0.00172      0.06208      0.01342      
52900   0.15677    0.03748    0.05272    0.00165      0.06274      0.01085      0.00183      0.06190      0.01297      
53000   0.15674    0.03746    0.05272    0.00151      0.06295      0.01053      0.00171      0.06201      0.01254      
53100   0.15639    0.03731    0.05253    0.00161      0.06276      0.01091      0.00188      0.06184      0.01317      
53200   0.15585    0.03720    0.05239    0.00160      0.06262      0.01018      0.00183      0.06175      0.01221      
53300   0.15635    0.03721    0.05254    0.00148      0.06267      0.01222      0.00171      0.06192      0.01417      
53400   0.15695    0.03747    0.05275    0.00167      0.06286      0.01096      0.00198      0.06199      0.01319      
53500   0.15632    0.03750    0.05252    0.00165      0.06256      0.01042      0.00194      0.06178      0.01220      
53600   0.15603    0.03716    0.05235    0.00160      0.06273      0.01097      0.00184      0.06192      0.01320      
53700   0.15605    0.03724    0.05248    0.00148      0.06278      0.01033      0.00178      0.06190      0.01233      
53800   0.15622    0.03730    0.05243    0.00163      0.06276      0.01049      0.00186      0.06185      0.01279      
53900   0.15583    0.03695    0.05221    0.00173      0.06284      0.01046      0.00189      0.06186      0.01269      
54000   0.15566    0.03713    0.05218    0.00152      0.06268      0.01073      0.00172      0.06180      0.01304      
54100   0.15593    0.03713    0.05224    0.00165      0.06279      0.01062      0.00191      0.06189      0.01229      
54200   0.15543    0.03700    0.05207    0.00144      0.06276      0.01079      0.00164      0.06186      0.01262      
54300   0.15514    0.03676    0.05194    0.00149      0.06289      0.01033      0.00176      0.06206      0.01237      
54400   0.15524    0.03676    0.05199    0.00157      0.06267      0.01119      0.00175      0.06179      0.01305      
54500   0.15464    0.03669    0.05178    0.00158      0.06250      0.01047      0.00188      0.06162      0.01276      
54600   0.15551    0.03686    0.05198    0.00159      0.06284      0.01119      0.00189      0.06182      0.01281      
54700   0.15571    0.03700    0.05213    0.00162      0.06282      0.01070      0.00186      0.06186      0.01265      
54800   0.15551    0.03705    0.05203    0.00162      0.06265      0.01080      0.00179      0.06177      0.01272      
54900   0.15525    0.03693    0.05193    0.00160      0.06271      0.01042      0.00174      0.06178      0.01278      
55000   0.15542    0.03693    0.05199    0.00172      0.06268      0.01056      0.00197      0.06185      0.01263      
55100   0.15571    0.03704    0.05213    0.00170      0.06266      0.01089      0.00200      0.06175      0.01299      
55200   0.15517    0.03692    0.05196    0.00166      0.06251      0.01060      0.00197      0.06172      0.01292      
55300   0.15516    0.03674    0.05195    0.00162      0.06280      0.01026      0.00192      0.06198      0.01288      
55400   0.15494    0.03672    0.05186    0.00154      0.06266      0.01086      0.00178      0.06180      0.01318      
55500   0.15401    0.03627    0.05139    0.00156      0.06267      0.01062      0.00178      0.06174      0.01286      
55600   0.15426    0.03641    0.05151    0.00163      0.06260      0.01049      0.00190      0.06165      0.01279      
55700   0.15463    0.03657    0.05158    0.00167      0.06265      0.01080      0.00198      0.06175      0.01300      
55800   0.15401    0.03633    0.05140    0.00158      0.06250      0.01099      0.00187      0.06166      0.01345      
55900   0.15367    0.03631    0.05129    0.00153      0.06255      0.00995      0.00179      0.06162      0.01224      
56000   0.15355    0.03609    0.05114    0.00154      0.06255      0.01118      0.00176      0.06167      0.01345      
56100   0.15309    0.03596    0.05105    0.00148      0.06259      0.01009      0.00171      0.06173      0.01214      
56200   0.15307    0.03598    0.05102    0.00159      0.06241      0.01040      0.00186      0.06147      0.01263      
56300   0.15328    0.03581    0.05108    0.00169      0.06258      0.01054      0.00197      0.06163      0.01266      
56400   0.15280    0.03569    0.05090    0.00154      0.06253      0.01072      0.00184      0.06159      0.01281      
56500   0.15283    0.03570    0.05092    0.00155      0.06258      0.01034      0.00178      0.06164      0.01229      
56600   0.15275    0.03582    0.05084    0.00160      0.06249      0.01000      0.00190      0.06157      0.01204      
56700   0.15317    0.03577    0.05097    0.00150      0.06278      0.01073      0.00171      0.06191      0.01295      
56800   0.15290    0.03572    0.05094    0.00151      0.06264      0.01044      0.00177      0.06175      0.01285      
56900   0.15282    0.03574    0.05083    0.00156      0.06257      0.01059      0.00186      0.06165      0.01230      
57000   0.15281    0.03577    0.05085    0.00157      0.06249      0.01069      0.00179      0.06166      0.01290      
57100   0.15248    0.03557    0.05064    0.00152      0.06262      0.01064      0.00183      0.06173      0.01306      
57200   0.15187    0.03538    0.05048    0.00147      0.06251      0.01015      0.00170      0.06168      0.01241      
57300   0.15188    0.03531    0.05038    0.00151      0.06269      0.00995      0.00174      0.06177      0.01195      
57400   0.15169    0.03514    0.05027    0.00155      0.06239      0.01165      0.00174      0.06143      0.01411      
57500   0.15162    0.03510    0.05031    0.00156      0.06258      0.01034      0.00184      0.06159      0.01251      
57600   0.15176    0.03519    0.05033    0.00158      0.06261      0.01027      0.00175      0.06170      0.01234      
57700   0.15163    0.03526    0.05030    0.00147      0.06250      0.01049      0.00172      0.06162      0.01265      
57800   0.15175    0.03512    0.05026    0.00152      0.06269      0.01080      0.00177      0.06181      0.01316      
57900   0.15144    0.03508    0.05022    0.00163      0.06228      0.01121      0.00183      0.06140      0.01322      
58000   0.15143    0.03504    0.05025    0.00162      0.06237      0.01077      0.00180      0.06145      0.01347      
58100   0.15076    0.03481    0.04994    0.00147      0.06244      0.01055      0.00165      0.06160      0.01335      
58200   0.15093    0.03476    0.05004    0.00162      0.06249      0.01008      0.00194      0.06158      0.01241      
58300   0.15033    0.03460    0.04973    0.00156      0.06242      0.01013      0.00180      0.06157      0.01241      
58400   0.15042    0.03458    0.04968    0.00143      0.06256      0.01083      0.00169      0.06173      0.01315      
58500   0.15036    0.03460    0.04969    0.00165      0.06230      0.01057      0.00184      0.06145      0.01302      
58600   0.15041    0.03454    0.04965    0.00148      0.06265      0.01043      0.00168      0.06178      0.01258      
58700   0.15027    0.03441    0.04959    0.00166      0.06248      0.01068      0.00184      0.06156      0.01293      
58800   0.14972    0.03405    0.04938    0.00152      0.06245      0.01162      0.00176      0.06158      0.01357      
58900   0.14951    0.03413    0.04927    0.00148      0.06251      0.01059      0.00175      0.06159      0.01298      
59000   0.14924    0.03402    0.04916    0.00149      0.06253      0.01022      0.00175      0.06174      0.01260      
59100   0.14949    0.03409    0.04927    0.00154      0.06256      0.01013      0.00178      0.06171      0.01234      
59200   0.14906    0.03399    0.04908    0.00150      0.06239      0.01044      0.00177      0.06155      0.01283      
59300   0.14937    0.03407    0.04922    0.00167      0.06228      0.01057      0.00191      0.06144      0.01305      
59400   0.14886    0.03389    0.04912    0.00145      0.06239      0.01010      0.00169      0.06151      0.01252      
59500   0.14887    0.03381    0.04904    0.00154      0.06239      0.01039      0.00179      0.06146      0.01249      
59600   0.14949    0.03394    0.04918    0.00179      0.06246      0.01059      0.00205      0.06156      0.01275      
59700   0.14878    0.03375    0.04900    0.00154      0.06245      0.01022      0.00180      0.06153      0.01209      
59800   0.14920    0.03386    0.04912    0.00147      0.06266      0.01043      0.00169      0.06176      0.01261      
59900   0.14869    0.03362    0.04894    0.00146      0.06258      0.01047      0.00172      0.06165      0.01218      
60000   0.14868    0.03369    0.04894    0.00157      0.06241      0.01035      0.00183      0.06154      0.01242      
60100   0.14883    0.03374    0.04897    0.00152      0.06243      0.01080      0.00175      0.06147      0.01311      
60200   0.14835    0.03357    0.04879    0.00155      0.06241      0.01018      0.00181      0.06148      0.01209      
60300   0.14875    0.03374    0.04888    0.00149      0.06246      0.01089      0.00181      0.06160      0.01272      
60400   0.14822    0.03361    0.04871    0.00154      0.06235      0.01001      0.00176      0.06141      0.01185      
60500   0.14781    0.03350    0.04853    0.00148      0.06224      0.01032      0.00178      0.06131      0.01266      
60600   0.14804    0.03348    0.04862    0.00160      0.06224      0.01046      0.00186      0.06126      0.01256      
60700   0.14738    0.03326    0.04833    0.00154      0.06211      0.01073      0.00170      0.06124      0.01286      
60800   0.14746    0.03343    0.04837    0.00155      0.06206      0.01029      0.00174      0.06110      0.01256      
60900   0.14743    0.03341    0.04836    0.00149      0.06209      0.01046      0.00181      0.06112      0.01200      
61000   0.14787    0.03346    0.04851    0.00155      0.06230      0.01024      0.00175      0.06139      0.01220      
61100   0.14770    0.03333    0.04841    0.00142      0.06237      0.01089      0.00164      0.06144      0.01330      
61200   0.14741    0.03343    0.04829    0.00147      0.06219      0.01012      0.00172      0.06124      0.01239      
61300   0.14756    0.03334    0.04831    0.00157      0.06229      0.01028      0.00176      0.06139      0.01229      
61400   0.14665    0.03294    0.04796    0.00155      0.06200      0.01099      0.00175      0.06112      0.01293      
61500   0.14690    0.03309    0.04801    0.00162      0.06209      0.01049      0.00176      0.06119      0.01279      
[...]
233800  0.09793    0.01036    0.02638    0.00131      0.05814      0.00870      0.00159      0.05759      0.01074      
233900  0.09792    0.01035    0.02638    0.00131      0.05815      0.00869      0.00158      0.05759      0.01073      
234000  0.09792    0.01035    0.02637    0.00131      0.05814      0.00869      0.00159      0.05759      0.01072      
234100  0.09791    0.01035    0.02637    0.00131      0.05814      0.00869      0.00159      0.05759      0.01072      
234200  0.09791    0.01035    0.02637    0.00131      0.05814      0.00870      0.00159      0.05758      0.01076      
234300  0.09790    0.01034    0.02637    0.00131      0.05814      0.00869      0.00159      0.05758      0.01072      
234400  0.09789    0.01034    0.02636    0.00131      0.05814      0.00870      0.00159      0.05758      0.01073      
234500  0.09789    0.01034    0.02636    0.00131      0.05814      0.00869      0.00159      0.05758      0.01073      
234600  0.09788    0.01033    0.02636    0.00132      0.05813      0.00868      0.00160      0.05757      0.01073      
234700  0.09787    0.01033    0.02635    0.00131      0.05814      0.00869      0.00159      0.05757      0.01072      
234800  0.09787    0.01033    0.02635    0.00131      0.05813      0.00871      0.00159      0.05757      0.01076      
234900  0.09786    0.01033    0.02635    0.00132      0.05813      0.00871      0.00160      0.05757      0.01076      
235000  0.09786    0.01032    0.02634    0.00132      0.05813      0.00868      0.00160      0.05758      0.01073      
235100  0.09785    0.01032    0.02634    0.00133      0.05813      0.00868      0.00160      0.05757      0.01072      
235200  0.09784    0.01032    0.02634    0.00132      0.05813      0.00869      0.00159      0.05758      0.01073      
235300  0.09784    0.01032    0.02633    0.00132      0.05813      0.00871      0.00159      0.05757      0.01075      
235400  0.09783    0.01031    0.02633    0.00132      0.05813      0.00873      0.00159      0.05757      0.01079      
235500  0.09783    0.01031    0.02633    0.00131      0.05814      0.00870      0.00159      0.05758      0.01075      
235600  0.09782    0.01031    0.02633    0.00131      0.05813      0.00870      0.00159      0.05757      0.01074      
235700  0.09782    0.01031    0.02632    0.00131      0.05813      0.00872      0.00159      0.05757      0.01077      
235800  0.09781    0.01031    0.02632    0.00131      0.05813      0.00871      0.00159      0.05757      0.01076      
235900  0.09780    0.01030    0.02632    0.00132      0.05812      0.00871      0.00159      0.05756      0.01075      
236000  0.09780    0.01030    0.02631    0.00132      0.05812      0.00871      0.00159      0.05756      0.01075      
236100  0.09779    0.01030    0.02631    0.00131      0.05812      0.00871      0.00159      0.05757      0.01076      
236200  0.09778    0.01030    0.02631    0.00131      0.05812      0.00872      0.00159      0.05757      0.01076      
236300  0.09778    0.01030    0.02631    0.00132      0.05812      0.00870      0.00160      0.05756      0.01074      
236400  0.09777    0.01029    0.02630    0.00131      0.05812      0.00872      0.00158      0.05757      0.01077      
236500  0.09777    0.01029    0.02630    0.00131      0.05812      0.00870      0.00159      0.05756      0.01073      
236600  0.09776    0.01029    0.02630    0.00132      0.05811      0.00871      0.00160      0.05755      0.01075      
236700  0.09775    0.01029    0.02629    0.00132      0.05811      0.00870      0.00160      0.05756      0.01074      
236800  0.09775    0.01028    0.02629    0.00132      0.05811      0.00872      0.00159      0.05755      0.01077      
236900  0.09774    0.01028    0.02629    0.00132      0.05811      0.00871      0.00160      0.05756      0.01074      
237000  0.09773    0.01028    0.02628    0.00132      0.05811      0.00871      0.00159      0.05756      0.01075      
237100  0.09773    0.01027    0.02628    0.00131      0.05812      0.00873      0.00159      0.05756      0.01078      
237200  0.09772    0.01027    0.02628    0.00132      0.05811      0.00871      0.00160      0.05756      0.01076      
237300  0.09771    0.01027    0.02627    0.00131      0.05812      0.00870      0.00159      0.05756      0.01075      
237400  0.09770    0.01027    0.02627    0.00132      0.05811      0.00873      0.00159      0.05756      0.01078      
237500  0.09770    0.01026    0.02627    0.00131      0.05812      0.00869      0.00159      0.05757      0.01072      
237600  0.09769    0.01026    0.02626    0.00131      0.05811      0.00870      0.00159      0.05756      0.01073      
237700  0.09769    0.01026    0.02626    0.00131      0.05811      0.00869      0.00159      0.05756      0.01073      
237800  0.09768    0.01026    0.02626    0.00132      0.05811      0.00871      0.00159      0.05755      0.01074      
237900  0.09767    0.01025    0.02625    0.00131      0.05812      0.00869      0.00158      0.05756      0.01073      
238000  0.09767    0.01025    0.02625    0.00131      0.05811      0.00869      0.00159      0.05756      0.01072      
238100  0.09766    0.01025    0.02625    0.00132      0.05811      0.00869      0.00160      0.05755      0.01073      
238200  0.09766    0.01025    0.02624    0.00131      0.05812      0.00869      0.00158      0.05756      0.01073      
238300  0.09765    0.01024    0.02624    0.00132      0.05811      0.00868      0.00159      0.05755      0.01072      
238400  0.09764    0.01024    0.02624    0.00132      0.05811      0.00868      0.00160      0.05755      0.01072      
238500  0.09763    0.01024    0.02624    0.00131      0.05811      0.00868      0.00159      0.05755      0.01071      
238600  0.09763    0.01024    0.02623    0.00132      0.05811      0.00869      0.00160      0.05755      0.01073      
238700  0.09763    0.01024    0.02623    0.00132      0.05811      0.00869      0.00160      0.05755      0.01072      
238800  0.09762    0.01023    0.02623    0.00131      0.05811      0.00870      0.00159      0.05755      0.01073      
238900  0.09761    0.01023    0.02622    0.00132      0.05810      0.00871      0.00159      0.05755      0.01074      
239000  0.09761    0.01023    0.02622    0.00132      0.05811      0.00869      0.00159      0.05755      0.01073      
239100  0.09760    0.01022    0.02622    0.00132      0.05811      0.00869      0.00160      0.05755      0.01072      
239200  0.09760    0.01022    0.02621    0.00132      0.05810      0.00872      0.00159      0.05755      0.01076      
239300  0.09759    0.01022    0.02621    0.00131      0.05811      0.00870      0.00159      0.05755      0.01073      
239400  0.09758    0.01021    0.02621    0.00132      0.05810      0.00872      0.00159      0.05754      0.01075      
239500  0.09758    0.01021    0.02621    0.00131      0.05811      0.00870      0.00159      0.05754      0.01074      
239600  0.09757    0.01021    0.02620    0.00131      0.05810      0.00872      0.00158      0.05755      0.01077      
239700  0.09756    0.01021    0.02620    0.00131      0.05810      0.00874      0.00158      0.05754      0.01080      
239800  0.09756    0.01021    0.02620    0.00132      0.05809      0.00872      0.00160      0.05754      0.01077      
239900  0.09755    0.01021    0.02619    0.00131      0.05810      0.00873      0.00159      0.05754      0.01078      
240000  0.09754    0.01020    0.02619    0.00132      0.05809      0.00872      0.00159      0.05753      0.01078      
240100  0.09754    0.01020    0.02619    0.00131      0.05809      0.00872      0.00159      0.05753      0.01077      
240200  0.09753    0.01020    0.02618    0.00131      0.05810      0.00871      0.00159      0.05754      0.01076      
240300  0.09752    0.01019    0.02618    0.00131      0.05809      0.00873      0.00159      0.05753      0.01078      
240400  0.09752    0.01019    0.02618    0.00131      0.05809      0.00872      0.00159      0.05753      0.01077      
240500  0.09751    0.01019    0.02618    0.00131      0.05809      0.00870      0.00159      0.05753      0.01076      
240600  0.09750    0.01019    0.02617    0.00132      0.05809      0.00870      0.00159      0.05753      0.01074      
240700  0.09750    0.01019    0.02617    0.00131      0.05809      0.00872      0.00158      0.05753      0.01077      
240800  0.09749    0.01018    0.02617    0.00131      0.05808      0.00874      0.00159      0.05753      0.01079      
240900  0.09749    0.01018    0.02616    0.00132      0.05808      0.00871      0.00159      0.05753      0.01075      
241000  0.09748    0.01018    0.02616    0.00131      0.05809      0.00871      0.00159      0.05753      0.01076      
241100  0.09748    0.01018    0.02616    0.00131      0.05809      0.00870      0.00158      0.05754      0.01074      
241200  0.09747    0.01017    0.02615    0.00131      0.05809      0.00869      0.00158      0.05753      0.01073      
241300  0.09746    0.01017    0.02615    0.00131      0.05809      0.00871      0.00159      0.05753      0.01075      
241400  0.09746    0.01017    0.02615    0.00131      0.05808      0.00871      0.00159      0.05753      0.01076      
241500  0.09745    0.01016    0.02614    0.00131      0.05809      0.00869      0.00159      0.05753      0.01073      
241600  0.09744    0.01016    0.02614    0.00131      0.05809      0.00871      0.00159      0.05753      0.01076      
241700  0.09744    0.01016    0.02614    0.00131      0.05809      0.00870      0.00159      0.05753      0.01076      
241800  0.09743    0.01016    0.02613    0.00132      0.05808      0.00870      0.00159      0.05753      0.01075      
241900  0.09743    0.01015    0.02613    0.00131      0.05809      0.00871      0.00158      0.05753      0.01077      
242000  0.09742    0.01015    0.02613    0.00131      0.05809      0.00871      0.00159      0.05753      0.01076      
242100  0.09742    0.01015    0.02613    0.00131      0.05809      0.00870      0.00159      0.05753      0.01075      
242200  0.09741    0.01015    0.02612    0.00131      0.05808      0.00872      0.00158      0.05753      0.01080      
242300  0.09740    0.01014    0.02612    0.00132      0.05808      0.00872      0.00159      0.05753      0.01080      
242400  0.09740    0.01014    0.02612    0.00131      0.05808      0.00871      0.00158      0.05753      0.01077      
242500  0.09739    0.01014    0.02611    0.00131      0.05809      0.00871      0.00158      0.05753      0.01076      
242600  0.09738    0.01014    0.02611    0.00131      0.05808      0.00871      0.00158      0.05753      0.01078      
242700  0.09738    0.01014    0.02611    0.00131      0.05808      0.00872      0.00159      0.05752      0.01077      
242800  0.09737    0.01013    0.02610    0.00131      0.05808      0.00873      0.00159      0.05752      0.01078      
242900  0.09737    0.01013    0.02610    0.00131      0.05808      0.00872      0.00159      0.05752      0.01078      
243000  0.09736    0.01013    0.02610    0.00131      0.05808      0.00872      0.00159      0.05753      0.01078      
243100  0.09736    0.01013    0.02610    0.00130      0.05808      0.00873      0.00158      0.05753      0.01079      
243200  0.09735    0.01012    0.02609    0.00131      0.05808      0.00872      0.00159      0.05752      0.01078      
243300  0.09734    0.01012    0.02609    0.00131      0.05808      0.00872      0.00159      0.05753      0.01077      
243400  0.09734    0.01012    0.02609    0.00131      0.05808      0.00872      0.00158      0.05753      0.01077      
243500  0.09733    0.01012    0.02608    0.00131      0.05808      0.00871      0.00159      0.05752      0.01076      
243600  0.09733    0.01012    0.02608    0.00131      0.05808      0.00873      0.00158      0.05752      0.01079      
243700  0.09732    0.01012    0.02607    0.00131      0.05808      0.00871      0.00159      0.05752      0.01077      
243800  0.09732    0.01011    0.02607    0.00131      0.05808      0.00871      0.00159      0.05752      0.01077      
243900  0.09731    0.01011    0.02607    0.00131      0.05807      0.00872      0.00159      0.05751      0.01078      
244000  0.09731    0.01011    0.02607    0.00131      0.05807      0.00872      0.00159      0.05752      0.01078      
244100  0.09730    0.01011    0.02606    0.00131      0.05808      0.00871      0.00158      0.05752      0.01076      
244200  0.09729    0.01010    0.02606    0.00131      0.05808      0.00871      0.00158      0.05752      0.01076      
244300  0.09729    0.01010    0.02606    0.00131      0.05808      0.00870      0.00159      0.05752      0.01075      
244400  0.09728    0.01010    0.02605    0.00131      0.05808      0.00869      0.00159      0.05752      0.01074      
244500  0.09727    0.01010    0.02605    0.00131      0.05807      0.00872      0.00159      0.05752      0.01077      
244600  0.09727    0.01010    0.02605    0.00131      0.05807      0.00872      0.00159      0.05751      0.01077      
244700  0.09726    0.01009    0.02604    0.00131      0.05806      0.00873      0.00159      0.05751      0.01079      
244800  0.09725    0.01009    0.02604    0.00131      0.05807      0.00872      0.00158      0.05751      0.01078      
244900  0.09724    0.01009    0.02604    0.00131      0.05807      0.00871      0.00159      0.05751      0.01077      
245000  0.09724    0.01009    0.02603    0.00131      0.05806      0.00872      0.00159      0.05750      0.01079      
245100  0.09723    0.01008    0.02603    0.00131      0.05806      0.00872      0.00159      0.05751      0.01078      
245200  0.09723    0.01008    0.02603    0.00131      0.05806      0.00872      0.00159      0.05750      0.01078      
245300  0.09722    0.01008    0.02603    0.00132      0.05806      0.00871      0.00160      0.05750      0.01077      
245400  0.09722    0.01008    0.02602    0.00131      0.05806      0.00872      0.00159      0.05751      0.01077      
245500  0.09721    0.01008    0.02602    0.00131      0.05806      0.00872      0.00159      0.05751      0.01078      
245600  0.09720    0.01007    0.02602    0.00131      0.05806      0.00871      0.00159      0.05751      0.01075      
245700  0.09720    0.01007    0.02601    0.00131      0.05806      0.00872      0.00158      0.05750      0.01077      
245800  0.09719    0.01007    0.02601    0.00131      0.05806      0.00873      0.00158      0.05751      0.01080      
245900  0.09719    0.01007    0.02601    0.00131      0.05806      0.00872      0.00158      0.05751      0.01077      
246000  0.09718    0.01007    0.02601    0.00131      0.05806      0.00872      0.00159      0.05751      0.01078      
246100  0.09718    0.01007    0.02600    0.00131      0.05806      0.00873      0.00159      0.05751      0.01080      
246200  0.09717    0.01006    0.02600    0.00131      0.05806      0.00873      0.00158      0.05751      0.01080      
246300  0.09717    0.01006    0.02599    0.00130      0.05806      0.00873      0.00158      0.05751      0.01079      
246400  0.09716    0.01006    0.02599    0.00131      0.05806      0.00871      0.00158      0.05751      0.01076      
246500  0.09716    0.01006    0.02599    0.00131      0.05805      0.00872      0.00159      0.05750      0.01079      
246600  0.09715    0.01005    0.02599    0.00131      0.05805      0.00873      0.00159      0.05750      0.01079      
246700  0.09714    0.01005    0.02598    0.00131      0.05806      0.00874      0.00158      0.05750      0.01079      
246800  0.09714    0.01005    0.02598    0.00131      0.05806      0.00873      0.00158      0.05751      0.01079      
246900  0.09713    0.01005    0.02597    0.00130      0.05806      0.00872      0.00158      0.05751      0.01079      
247000  0.09713    0.01005    0.02597    0.00131      0.05806      0.00873      0.00158      0.05750      0.01079      
247100  0.09712    0.01005    0.02597    0.00131      0.05805      0.00872      0.00159      0.05750      0.01078      
247200  0.09711    0.01004    0.02596    0.00131      0.05805      0.00873      0.00159      0.05749      0.01079      
247300  0.09711    0.01004    0.02596    0.00131      0.05805      0.00872      0.00158      0.05750      0.01078      
247400  0.09710    0.01004    0.02596    0.00131      0.05805      0.00873      0.00159      0.05749      0.01079      
247500  0.09709    0.01004    0.02595    0.00131      0.05805      0.00873      0.00159      0.05749      0.01079      
247600  0.09708    0.01003    0.02595    0.00130      0.05805      0.00873      0.00158      0.05750      0.01079      
247700  0.09708    0.01003    0.02595    0.00131      0.05805      0.00873      0.00158      0.05750      0.01079      
247800  0.09707    0.01003    0.02594    0.00131      0.05805      0.00872      0.00159      0.05750      0.01078      
247900  0.09707    0.01003    0.02594    0.00131      0.05805      0.00872      0.00159      0.05749      0.01077      
248000  0.09706    0.01003    0.02594    0.00131      0.05804      0.00872      0.00159      0.05749      0.01077      
248100  0.09705    0.01002    0.02593    0.00131      0.05805      0.00870      0.00158      0.05749      0.01074      
248200  0.09705    0.01002    0.02593    0.00131      0.05805      0.00872      0.00159      0.05749      0.01076      
248300  0.09704    0.01002    0.02593    0.00131      0.05805      0.00871      0.00158      0.05749      0.01075      
248400  0.09704    0.01002    0.02592    0.00131      0.05804      0.00871      0.00159      0.05749      0.01075      
248500  0.09703    0.01002    0.02592    0.00131      0.05804      0.00872      0.00159      0.05749      0.01077      
248600  0.09703    0.01001    0.02592    0.00131      0.05804      0.00873      0.00159      0.05749      0.01078      
248700  0.09702    0.01001    0.02591    0.00131      0.05804      0.00873      0.00158      0.05749      0.01078      
248800  0.09701    0.01001    0.02591    0.00131      0.05804      0.00871      0.00159      0.05749      0.01076      
248900  0.09701    0.01001    0.02591    0.00131      0.05804      0.00871      0.00158      0.05749      0.01075      
249000  0.09700    0.01000    0.02590    0.00131      0.05804      0.00871      0.00159      0.05749      0.01074      
249100  0.09700    0.01000    0.02590    0.00131      0.05805      0.00871      0.00158      0.05749      0.01074      
249200  0.09699    0.01000    0.02590    0.00131      0.05804      0.00870      0.00159      0.05749      0.01072      
249300  0.09699    0.01000    0.02589    0.00131      0.05804      0.00871      0.00159      0.05749      0.01075      
249400  0.09698    0.01000    0.02589    0.00131      0.05805      0.00873      0.00158      0.05749      0.01077      
249500  0.09698    0.00999    0.02589    0.00131      0.05805      0.00871      0.00159      0.05749      0.01074      
249600  0.09697    0.00999    0.02588    0.00131      0.05804      0.00871      0.00159      0.05749      0.01076      
249700  0.09696    0.00999    0.02588    0.00131      0.05804      0.00872      0.00159      0.05748      0.01077      
249800  0.09696    0.00999    0.02588    0.00131      0.05805      0.00871      0.00158      0.05749      0.01076      
249900  0.09695    0.00998    0.02587    0.00131      0.05804      0.00871      0.00159      0.05749      0.01075      
250000  0.09694    0.00998    0.02587    0.00131      0.05804      0.00872      0.00159      0.05749      0.01076      

---------------------------------------------------------------
Time used for training = 109091.640625 s.
---------------------------------------------------------------


---------------------------------------------------------------
Finished running nep.
---------------------------------------------------------------

