 -1.7304141e-03   6.4544921e-04
 -4.2098302e-02   4.9141626e-04
  3.5712952e-03   6.8179687e-04
  3.7498770e-03   7.5159053e-04
 -3.5202978e-03   2.5648999e-04
 -1.2385732e-05   6.5935886e-04
  1.5760352e-03   1.0488363e-03
 -2.2779673e-03   1.0295435e-03
 -2.5908928e-03   8.5490849e-04
  1.1053806e-03   2.5463378e-04
  3.9293459e-03   7.2209060e-04
  1.4994075e-03   7.5418997e-04
  5.4707855e-04   4.7637895e-04
 -8.1581689e-05   6.9596939e-04
 -1.0937236e-03   4.6385243e-04
  1.3553461e-03   2.7437243e-04
  9.0447487e-03   5.0420110e-04
  7.4187078e-04   5.9459230e-04
  1.4635138e-03   4.6281132e-04
 -3.0771305e-04   1.0195986e-03
 -5.3536389e-03   2.6908173e-04
 -1.5043123e-03   6.4268376e-04
  3.0283399e-03   7.5858057e-04
  1.6375971e-03   6.7314686e-04
 -8.3862513e-04   8.6924242e-04
  1.3839741e-01   6.5316452e-04
  3.7723705e-03   6.3894503e-04
 -1.8766295e-03   5.5788597e-04
  7.3248625e-04   4.2679682e-04
 -2.1047564e-03   1.1572592e-03
  2.2377442e-04   8.0905110e-04
  3.9555011e-03   5.5747159e-04
  6.4593495e-04   6.3778891e-04
  2.8343536e-03   5.9449318e-04
 -1.5741335e-03   7.1920751e-04
  1.5117486e-03   1.1497748e-03
  3.5785618e-03   5.2972208e-04
  3.2059364e-03   1.1460421e-03
 -2.3803166e-03   4.9148797e-04
 -2.4521089e-04   5.8526359e-04
  3.6436267e-04   2.4631870e-04
  3.9519422e-04   5.9305702e-04
  6.9472467e-04   3.8671555e-04
 -3.4406458e-03   9.5769862e-04
  2.5916317e-01   6.3551925e-05
  5.4523621e-02   8.7926586e-05
  8.9523971e-02   1.8810395e-04
  8.3715789e-02   9.1980641e-05
  1.2941860e-01   1.4651481e-04
  1.2015704e-02   2.5410179e-04
 -3.4073049e-01   2.3003503e-04
  1.0300402e-01   1.9698334e-04
  8.2831614e-02   3.6908535e-04
  8.7664630e-03   1.5591455e-03
 -3.1245395e-03   5.0068874e-04
  6.7395750e-03   8.5858704e-04
  3.2979767e-03   2.3746150e-04
  2.5413309e-03   2.2995498e-04
 -1.2386263e-02   9.0395386e-04
 -1.3801337e-03   3.7239908e-04
  1.7084965e-03   1.1406303e-04
  2.2902433e-03   2.7542983e-04
 -1.1302964e-01   4.4407530e-04
 -7.7827548e-04   8.7157276e-04
 -7.9713613e-02   5.7276449e-04
 -1.2379194e-01   5.7751804e-05
  3.1438592e-04   5.9040560e-04
  4.6253469e-04   1.1948209e-04
 -2.4879429e-02   3.0744044e-04
 -1.5587132e-02   3.4819383e-04
 -1.0249454e-02   1.4294538e-04
 -2.6041630e-03   2.0798150e-04
 -1.0153668e-01   1.7174995e-04
  4.0490380e-03   4.8164109e-04
 -1.1044870e-03   8.4406330e-04
 -3.1680953e-02   5.1623053e-04
 -7.7809423e-02   2.7535856e-04
 -9.2246654e-03   1.2437700e-03
 -2.1842737e-03   4.1798217e-04
 -1.5253667e-03   4.3805796e-04
 -5.8880486e-03   6.7920482e-04
  3.2486024e-04   6.5969123e-04
 -3.8930678e-04   2.1463507e-04
 -1.7211142e-03   8.3122996e-04
  3.6923750e-04   6.2684214e-04
  4.0045084e-04   2.5227113e-04
 -5.1165954e-03   1.7603418e-04
  7.1276627e-03   4.4168654e-04
  1.8732298e-02   6.8614812e-05
  9.5038861e-01   4.9295782e-06
 -1.0089798e+00   8.8478868e-05
  1.1535791e+00   7.2859548e-05
 -4.3569583e-01   7.1882823e-05
 -2.0115454e+00   1.3755886e-04
 -1.6988910e+00   2.3344460e-04
  3.4791538e-01   3.0634430e-05
 -5.4215455e-01   5.1199662e-05
 -5.5864200e-02   4.4078639e-04
  7.6556283e-01   1.7175675e-04
  7.4179184e-01   6.8099360e-04
 -8.9103043e-02   1.1865986e-03
  6.9147152e-01   7.6677854e-04
  1.1075701e+00   1.5162461e-04
 -1.3106080e+00   2.1234280e-04
 -3.3149907e-01   5.2391315e-05
 -8.9540905e-01   4.3669133e-04
  1.9611487e-01   1.7777066e-04
 -2.9810268e-02   1.0157702e-03
  2.4087055e-01   4.3746067e-04
 -1.0076138e+00   6.2791463e-05
  2.9958811e-01   4.5695566e-04
 -5.8021057e-01   7.9304169e-05
 -2.0139557e-01   3.4635945e-04
  1.7949741e+00   9.4764611e-05
  1.9958799e-04   9.4863860e-04
  2.2662641e-01   5.3561118e-05
 -8.8202512e-01   1.2069310e-04
  3.4388903e-01   4.0122011e-04
 -5.8762336e-01   1.3486108e-04
 -2.7914945e-04   6.8366597e-04
  5.7329243e-01   3.7596610e-04
  4.7367383e-02   2.3737093e-03
  1.0216595e-02   2.4450637e-04
 -7.3153818e-01   1.3687836e-04
  3.7016836e-01   1.1341856e-03
  5.9623468e-01   2.0176275e-03
 -6.4694151e-02   8.7742071e-04
 -3.7359212e-02   1.0073706e-04
  1.4809215e-02   3.3633926e-04
 -1.4752296e-03   1.0088324e-03
 -3.1754166e-01   5.1497470e-04
 -7.3413285e-03   2.6891346e-03
  3.1683019e-03   3.4259321e-04
 -4.6465904e-02   1.3764563e-04
  6.3214824e-02   2.6908069e-04
  1.1841900e-03   2.2151977e-04
 -3.6214045e-03   1.6601798e-04
  9.2669100e-02   3.6361659e-04
  9.4707051e-05   4.3439493e-04
  1.0945201e-01   3.7983229e-04
 -7.5144142e-01   2.3741643e-04
  1.1944878e-02   1.4635626e-03
 -9.9445777e-03   1.2836240e-03
 -6.0122012e-04   9.9551771e-04
 -1.0570958e-03   6.1131571e-04
 -4.8199361e-03   6.6598970e-04
 -6.2804006e-04   3.4718524e-04
 -4.3879878e-02   6.8905839e-04
 -1.7813623e-01   3.5527060e-04
 -3.1337004e-02   5.6801620e-04
  4.7720995e-04   6.9878169e-04
 -7.0726466e-03   5.9476355e-04
 -3.3811999e-03   4.8865861e-04
 -1.5045761e-01   2.4920964e-04
 -7.1796478e-04   8.7525515e-04
  2.2623284e-02   4.7219094e-04
 -1.0961508e-03   1.0043971e-03
  3.5353594e-02   6.1793230e-04
 -5.0570298e-04   3.1202659e-04
  2.0147427e-03   1.7351581e-04
 -3.1299103e-04   7.1776100e-05
 -1.4181752e-04   6.3141459e-04
 -5.5666972e-04   3.6990602e-04
 -8.4916271e-02   7.8114733e-04
 -2.6773131e-03   2.5576836e-04
 -3.6000628e-03   1.0716512e-03
 -1.0141938e-02   3.6246391e-04
 -1.4189778e-02   1.9245617e-04
 -4.7546625e-02   8.5713586e-04
  5.5410812e-04   3.6372605e-04
 -7.9616241e-04   5.5452803e-04
  6.3192518e-03   2.2190371e-04
 -1.6816114e-03   9.4036496e-04
  2.3007998e-03   5.5411144e-04
  9.2159333e-03   4.2161980e-04
 -1.1518049e-03   1.4383651e-03
 -5.0499529e-04   2.9541220e-04
  1.2783912e-01   1.2185735e-04
  8.2514511e-04   9.2468370e-04
 -1.1589847e-03   7.2074868e-04
  5.8244297e-04   2.6714811e-04
 -2.9071741e-04   4.9489940e-04
  5.0064498e-03   7.5728883e-04
 -3.4936019e-03   6.9837720e-04
 -1.0640642e-03   4.8853073e-04
  6.0451339e-04   3.8307562e-04
  4.7978314e-04   8.2271808e-04
 -1.2316876e-03   6.6739134e-04
 -2.4876135e-05   9.3696883e-04
 -2.4413886e-03   6.0463889e-04
  4.9721906e-03   4.1024800e-04
  3.8864269e-04   6.8994251e-04
 -2.7727650e-03   8.9615944e-04
  1.1264160e-03   4.8603441e-04
  3.4721957e-03   3.4525778e-04
  2.9380008e-04   4.9951486e-04
  7.1352866e-04   1.9499059e-04
  1.9310921e-03   4.2294111e-04
  2.3313418e-03   1.1386091e-03
 -5.5160112e-04   6.4372108e-04
 -9.3390589e-04   5.1443459e-04
  2.6634405e-03   4.7366027e-04
 -1.1039644e-03   7.3623069e-04
  4.4306186e-03   7.8417669e-04
  9.1046460e-02   3.9417107e-04
 -2.9547146e-04   9.8492473e-04
 -1.9850717e-03   7.1775331e-04
  8.0347405e-04   9.9141418e-04
 -2.2838112e-04   2.8711048e-04
 -9.7200321e-04   2.1627414e-04
  6.2953553e-04   3.2368803e-04
 -1.4972637e-04   6.0016644e-04
  2.0102200e-03   3.5477569e-04
  4.7957604e-03   3.6262634e-04
  1.6420231e-03   6.9817074e-04
  3.1843826e-03   1.1584784e-03
 -1.6709446e-03   7.3596992e-04
  2.0784026e-03   4.1303385e-04
 -8.2572456e-04   7.9445890e-04
  4.6972305e-04   5.7323562e-04
  2.3231808e-04   7.7695755e-04
 -1.9445190e-01   2.6613450e-05
 -4.9663009e-03   6.3099258e-04
  6.3980618e-03   5.2785274e-04
  5.6246272e-04   5.2359467e-04
  1.3252904e-03   7.9009315e-04
  3.5248192e-03   3.1661065e-04
  9.9993587e-05   3.9070914e-04
  1.1196920e-03   6.9468940e-04
 -4.4693824e-04   1.1044992e-03
  7.6257269e-04   5.2834640e-04
 -8.3065301e-04   9.3548541e-04
  3.3036156e-03   1.7876699e-04
  4.0150364e-04   5.1782187e-04
  1.1240625e-03   6.5561145e-04
  6.7382604e-03   4.8064752e-04
 -4.0402994e-03   4.7849567e-04
  4.7133262e-03   1.0153331e-03
 -1.1376448e-03   8.2891132e-04
 -1.0908054e-03   4.1357442e-04
 -4.8694778e-03   9.3755499e-04
 -2.0495852e-05   5.6534924e-04
  8.2843512e-04   7.0482347e-04
  5.3247199e-03   7.2815799e-04
  1.8840220e-03   4.4033045e-04
  1.4956631e-03   4.4947525e-04
  5.3999654e-04   8.0396642e-04
  1.3455804e-03   5.5879593e-04
  3.0659739e-04   1.7529512e-04
 -6.5418766e-03   5.0458545e-04
 -2.3460470e-03   5.1851937e-04
  9.1928886e-03   7.0006266e-04
  2.0601027e-04   9.0065919e-04
 -6.1019626e-04   7.3942792e-04
  4.3740525e-04   8.5209036e-04
 -1.8814758e-03   3.3206787e-04
  6.6167391e-03   5.7851395e-04
  1.4668778e-03   6.6062465e-04
  3.1230317e-03   7.4538635e-04
  3.5342271e-04   8.2003354e-04
  2.3853860e-03   1.1239786e-03
  5.0378931e-03   3.3911207e-04
  5.6439592e-04   3.9741519e-04
 -1.2242086e-02   1.0650354e-03
  8.9309213e-04   8.6835626e-04
  1.0451145e-03   3.5557372e-04
  9.3091466e-04   8.7311480e-04
  9.8679867e-04   8.0151088e-04
 -6.3512835e-04   5.2409072e-04
  1.1506866e-03   1.0312637e-03
  1.1174745e-04   3.5791832e-04
  1.4865547e-03   6.0799601e-04
 -6.6827633e-06   3.8595853e-04
  1.9728160e-03   5.3731992e-04
  5.0037721e-05   4.6601525e-04
 -5.7342071e-03   1.3173005e-03
  7.4662678e-03   4.6542435e-04
  1.6503723e-04   6.8161765e-04
 -1.2707763e-03   9.3844801e-04
 -1.0317904e-03   3.0647090e-04
  1.4868404e-03   6.6245609e-04
  6.7531195e-04   4.7385786e-04
  1.1996030e-03   5.0154486e-04
  1.0831995e-03   8.9143333e-04
  9.5215696e-04   1.1298417e-03
 -1.3034426e-03   8.6225674e-04
 -8.7047089e-04   9.2648790e-04
 -8.0060016e-04   5.5724656e-04
  3.7245101e-03   7.8257237e-04
  1.8084558e-03   6.3416950e-04
 -6.1385415e-04   4.6283929e-04
 -1.3757930e-03   3.0116286e-04
  2.6885311e-03   4.9589504e-04
 -7.0221061e-03   1.3257800e-04
  1.4948542e-03   5.6166982e-04
 -4.3296362e-03   3.8728991e-04
  2.0132619e-03   6.9762708e-04
 -8.1600522e-04   7.3656091e-04
 -1.0334923e-03   1.1780527e-03
  5.0837710e-04   6.9190131e-04
  1.9064042e-03   4.0961089e-04
  9.9598059e-05   2.8260949e-04
  9.8754908e-04   6.3395116e-04
  5.9848925e-04   7.5619615e-04
  1.0289663e-03   2.6362002e-04
  2.8241328e-03   1.3123924e-03
  1.1314071e-03   1.2607932e-04
  3.5038658e-03   5.2028167e-04
 -1.1242256e-03   1.2778460e-04
 -7.2993881e-01   2.5300618e-04
  1.0207529e-02   9.4074529e-04
  1.3346587e-03   5.8600440e-04
  3.9957589e-03   5.4890447e-04
  1.0199983e-01   2.7966572e-04
  1.0356328e-02   8.6433440e-04
  8.3752824e-03   4.5325779e-04
  1.9638726e-02   1.2859752e-04
 -1.2981752e-03   1.0188266e-03
  5.8977672e-05   2.4680202e-04
  5.7733539e-03   1.0046262e-03
 -1.2423675e-02   5.7596364e-04
 -1.0722984e-03   8.2916417e-04
  3.2318109e-03   4.6038290e-04
 -2.5529880e-03   6.5444631e-04
 -2.7843413e-04   5.4364401e-04
 -3.7431062e-04   5.3488812e-04
 -1.4416693e-02   3.8993935e-04
  7.3427631e-04   2.8354852e-04
  3.5776785e-03   2.6176689e-04
 -3.0354040e-03   3.8076981e-04
 -5.7864077e-03   5.2271300e-04
 -1.2732264e-04   4.1765964e-04
  5.8159730e-03   6.0077006e-04
  2.2852891e-03   8.4652519e-04
 -1.3230286e-03   5.1647075e-04
 -2.4191698e-04   3.3601062e-04
 -3.6611245e-04   1.5759689e-04
  3.1663128e-03   8.4070617e-04
  2.4988819e-03   5.5506319e-04
 -2.6489841e-03   6.9803389e-04
  4.9151963e-04   5.4555014e-04
  9.8914676e-04   8.0075231e-04
  2.8703779e-03   1.1191739e-03
 -6.5594431e-05   5.9587607e-04
 -8.3664531e-04   8.0388447e-04
  4.8210853e-04   9.3990203e-04
  1.3806532e-03   6.0326891e-04
  2.3074839e-03   6.6456362e-04
 -1.7286930e-03   8.2970416e-04
 -1.0356244e-03   7.0326147e-04
  2.5979953e-04   9.9108950e-04
  4.3539703e-03   4.3328624e-04
  8.9014519e-04   9.2340517e-04
  4.4672797e-04   2.5105674e-04
  5.2185296e-03   2.6269112e-04
  5.0272793e-03   2.2755793e-04
  3.5421364e-03   7.2858128e-04
  4.8582712e-03   5.2596745e-04
 -2.2725039e-03   8.1893371e-04
  1.0218685e-03   6.3578552e-04
 -3.0576476e-04   7.1624212e-04
  6.7470130e-04   1.0159846e-03
 -2.2646810e-03   1.3751391e-03
 -3.5876092e-03   9.5202436e-04
 -1.2897730e-03   6.5998995e-04
 -2.6727127e-04   8.7781629e-04
  1.9823208e-05   4.3659355e-04
 -6.7840540e-04   8.9322921e-04
 -3.7855277e-04   4.5553595e-04
  7.2528719e-04   5.2764220e-04
  2.9890385e-04   6.6051184e-04
 -1.2661716e-03   9.4545755e-04
  6.6490931e-05   1.1703377e-03
  2.9039381e-03   3.6973559e-04
 -4.8383442e-03   9.7282906e-04
  4.0269858e-04   7.4365380e-04
 -1.3289315e-03   4.4417809e-04
 -3.6954577e-04   5.3243939e-04
 -8.0856506e-04   4.8692850e-04
 -4.2809849e-03   8.9844904e-04
 -4.7721206e-03   9.1749040e-04
  8.5680082e-04   1.0158035e-03
  1.3518333e-02   7.7521172e-04
 -6.0333442e-03   7.3589641e-04
  3.8818369e-05   2.7521123e-04
 -2.3953577e-03   6.6738157e-04
 -1.4719901e-03   4.7009889e-04
 -1.1332920e-03   7.2097423e-04
 -1.7088666e-04   5.6479574e-04
  5.9866323e-04   1.1319951e-03
 -1.7035396e-03   4.0859162e-04
 -2.7747699e-03   1.0487292e-03
  4.4846124e-04   7.0550881e-04
  3.1930616e-04   3.6083630e-04
 -4.2504363e-04   7.2740257e-04
  1.4890458e-03   1.8148101e-04
 -1.3309517e-03   6.2957319e-04
  2.3885458e-04   5.5647001e-04
 -4.7659050e-04   4.5802395e-04
  2.0759152e-03   7.4334297e-04
 -1.0894478e-04   7.7170308e-04
  3.4655639e-04   8.3581550e-04
  1.5318199e-04   7.1487133e-04
 -1.9390280e-04   7.8006927e-04
  1.8958320e-03   2.4771626e-04
 -2.6176265e-03   5.7568226e-04
 -3.6692414e-03   4.8139322e-04
  5.2154879e-04   5.9967360e-04
  1.4798621e-03   4.1118922e-04
 -3.3856393e-03   9.9989458e-04
  1.9400171e-03   8.6267618e-04
 -2.6421668e-03   9.1363001e-04
  1.3085169e-03   8.5890281e-04
  2.6787605e-04   1.0541044e-03
 -4.2449354e-04   6.5530941e-04
  7.6595563e-05   2.6941599e-04
 -9.7148142e-05   7.7195157e-04
  3.0050427e-03   2.3108386e-04
 -9.8763069e-04   6.5138057e-04
 -4.5655104e-03   7.0021709e-04
 -5.6305493e-04   3.6756674e-04
  2.3862775e-03   7.1332022e-04
 -3.1966378e-04   3.4861808e-04
 -7.3251175e-04   3.6659613e-04
  1.8033297e-03   1.0070737e-03
 -1.1826928e-03   1.0098978e-03
  3.6162362e-03   4.7372637e-04
 -1.3840835e-03   3.9940813e-04
  4.7482676e-03   5.4527022e-04
 -5.6677535e-03   5.7814101e-04
  3.3275347e-04   4.0261573e-04
  2.0403685e-03   7.3291810e-04
  8.1468344e-04   1.0598088e-03
 -4.8299640e-04   1.1392861e-03
  9.4305910e-04   4.4397145e-04
  4.0089662e-04   2.9175976e-04
  8.1847922e-04   1.7934294e-04
  6.4083701e-03   3.2203627e-04
  1.5013446e-03   8.5559121e-04
 -1.3269862e-03   1.2504340e-03
  1.9212912e-03   4.6594377e-04
 -3.5542236e-03   1.1289450e-03
 -9.6480368e-04   1.3811088e-03
  8.9776039e-04   3.1472204e-04
 -2.8398063e-05   1.2561985e-03
 -1.3694928e-03   7.7300251e-04
  1.0104102e-04   1.0765566e-03
  8.2222148e-05   7.7836518e-04
 -7.9067756e-04   2.2211611e-04
  1.6134657e-03   6.7322503e-04
  1.9828894e-03   4.0768893e-04
 -1.9050224e-03   1.3198490e-03
 -8.5187168e-04   3.5091725e-04
  1.7009471e-03   5.7586876e-04
  1.0969430e-03   5.0553703e-04
  1.8128689e-04   8.1826263e-04
 -1.8380247e-03   8.3513783e-05
  3.2256570e-04   1.2353851e-03
 -6.9188012e-04   8.7047875e-04
  9.0990099e-04   8.2086725e-04
  2.0543842e-03   6.3669641e-04
 -1.1735881e-04   8.7546807e-04
 -2.6010096e-03   5.2536401e-04
  2.5711167e-03   5.3553929e-04
 -1.4195894e-04   1.9869108e-04
  3.1483057e-04   1.8369521e-03
 -2.1747401e-05   9.8755420e-04
 -1.5556938e-03   8.4836921e-04
  1.1679946e-04   5.1058264e-04
  1.2202224e-03   5.7802984e-04
  3.1626413e-03   5.9373560e-04
  4.1139068e-04   1.4831512e-03
  2.1252392e-03   5.2991044e-04
 -2.7196566e-03   4.8474810e-04
  1.3218242e-03   2.5203809e-04
 -2.6827857e-03   6.2554789e-04
  5.5969448e-04   6.8760390e-04
 -8.8198337e-04   1.0296659e-03
  4.1153552e-03   1.1343914e-03
 -8.9134480e-04   6.8802468e-04
 -1.5004902e-05   2.8034279e-04
  1.7893957e-03   5.3083379e-04
 -6.6518905e-03   3.0290490e-04
  4.2721545e-04   2.7392106e-04
  5.6061089e-01   2.6787222e-05
 -4.8243085e-01   4.8395115e-05
  4.2624471e-01   6.7514600e-05
 -3.2931173e-05   5.8003057e-05
  9.2165992e-02   6.3183383e-05
 -1.9846606e-01   2.2948698e-04
  1.1895455e-01   2.6702823e-04
 -4.5709807e-01   1.9781677e-04
  5.7297057e-01   3.9929186e-05
 -3.0714209e-04   9.7169826e-04
 -1.0066500e-01   6.5194647e-04
  4.1484289e-04   7.3759269e-04
  5.8156037e-04   7.4286514e-04
  9.1905944e-02   9.1951872e-05
  6.3794223e-04   8.4468402e-04
 -1.2769841e-01   6.3398492e-04
  1.1769904e-02   6.1869388e-04
  2.8023159e-02   5.5577193e-04
 -1.8764088e-02   1.1449271e-03
 -8.8665839e-03   3.1853036e-04
 -1.9691128e-03   4.4267433e-04
  1.0141649e+00   4.5810961e-05
 -2.3612236e-03   7.8186928e-04
  1.0949004e-01   6.4372056e-05
 -3.0469715e-03   2.6355908e-04
 -1.1431681e-01   3.6959830e-04
  2.4100211e-03   9.9674228e-04
 -3.0210527e-02   1.4447124e-04
 -2.4691604e-01   7.2434057e-05
 -4.7863824e-03   4.8400465e-04
 -3.1461582e-01   1.1435091e-03
 -5.5221985e-03   1.1274503e-03
  5.7222357e-04   5.4533168e-04
  5.6419714e-04   1.2502007e-04
  3.4300726e-02   9.8760030e-04
  8.6289570e-02   1.3145558e-03
  2.0076621e-02   9.9164936e-05
 -9.0441398e-02   1.4227548e-03
  7.9968562e-03   8.6199073e-04
  6.5732002e-04   7.9011288e-04
 -2.6683554e-03   8.4409799e-04
  2.2061490e-03   4.5259448e-04
 -1.3865636e-01   1.3859724e-03
  1.9081818e-03   6.9535250e-04
 -4.5604951e-04   9.4829203e-04
 -2.4466850e-03   4.4076642e-04
  3.8562268e-03   8.0164685e-04
  1.1693870e-03   9.5562940e-04
 -3.2960598e-03   3.9596611e-04
 -1.0373713e-03   9.0963056e-04
  5.9306141e-02   3.8615259e-04
  1.6377792e-04   1.3398979e-04
 -1.3879188e-03   6.9085392e-04
  2.6041386e-03   8.8881882e-04
 -1.7069831e-03   3.8229310e-04
 -1.3732024e-03   6.2762183e-04
 -7.6590548e-04   3.1537021e-04
 -6.4770377e-04   2.9233625e-04
 -1.4712571e-04   1.2912053e-03
  3.4573211e-04   1.2749253e-04
 -5.2039500e-04   4.0055960e-04
  2.2137789e-03   6.2075263e-04
  1.3166470e-03   6.9783290e-04
  2.2726902e-03   6.5336097e-04
 -2.8903650e-03   1.7638790e-04
  5.7640101e-04   7.4200251e-04
  2.6516868e-03   3.8320749e-04
 -9.8064367e-04   1.9820091e-04
 -3.0245556e-04   7.5831573e-04
  4.2196923e-05   1.6644645e-04
 -3.4285123e-03   7.5334252e-04
 -1.1133130e-03   1.0837923e-03
  3.6803618e-02   3.4821022e-04
 -2.0740840e-04   5.9315772e-04
 -2.4147751e-03   4.6598091e-04
 -2.3084423e-03   8.2605658e-04
  1.8159144e-04   3.1339866e-04
  1.0190220e-03   3.3096908e-04
 -1.9620266e-03   1.0133537e-03
 -1.4555999e-03   1.0804959e-03
 -7.1057912e-06   4.9005472e-04
 -8.8576000e-04   1.1507410e-03
 -4.3590213e-04   1.4198384e-04
 -4.1193285e-04   1.2266278e-03
  1.7825640e-03   7.4620516e-04
  2.3849756e-03   8.9587097e-04
 -1.9074733e-03   1.2273184e-03
  2.6735684e-03   6.8017025e-04
  3.5793104e-04   3.6331441e-04
  2.2781244e-03   5.4146885e-04
 -1.3517191e-04   4.3509807e-04
 -1.3825970e-03   4.9406523e-04
  1.4288843e-04   2.3593471e-04
 -1.1901018e-03   4.0369647e-04
 -8.8448229e-04   1.2772685e-03
  3.3727876e-04   4.1358452e-04
 -1.2234211e-04   5.3082302e-04
  4.0253778e-03   9.6607383e-04
  2.5310558e-03   2.6550860e-04
  1.9447671e-03   1.5848326e-04
  1.0522614e-02   2.2666805e-04
  8.4797299e-04   9.7276823e-04
  6.0700327e-03   7.7690906e-04
 -1.5994081e-03   1.2812051e-03
  2.7938422e-03   1.4554317e-03
  5.0483542e-03   2.7892747e-04
 -1.6638401e-03   1.1430508e-03
 -5.0834538e-03   3.9843773e-04
  2.5023408e-03   3.3018549e-04
  6.0513784e-04   2.7399874e-04
  6.2636612e-04   7.8766752e-04
 -2.5292346e-03   4.0085544e-04
 -4.0880573e-04   6.1254360e-04
 -3.9799078e-03   1.0611999e-03
  3.6370652e-04   5.7180482e-04
 -3.1469071e-03   7.5187860e-04
  4.9530774e-02   2.6039663e-04
 -1.6553720e-04   5.5049936e-04
  1.4143714e-03   6.3850731e-04
 -2.8586311e-03   6.1418413e-04
 -4.9897162e-03   7.3518849e-04
  1.9056802e-03   4.2304138e-04
  9.5665496e-04   6.0949574e-04
 -2.5318060e-03   7.5435109e-04
 -1.3947786e-03   6.3052174e-04
  4.5173061e-03   3.1644432e-04
 -9.3326479e-04   9.6740777e-04
  1.3232083e-03   1.5614256e-04
 -1.3022580e-03   4.7227196e-04
  1.3267306e-04   5.9661997e-04
  1.3646233e-03   2.5162357e-04
  1.3555369e-03   6.1818416e-04
  1.2137679e+00   8.0751364e-05
  5.2609216e-02   9.6186850e-06
 -4.8822656e-01   1.4263883e-05
 -1.5687385e-01   4.1048563e-05
 -1.7102341e-01   1.7893162e-04
 -2.9094802e-02   2.0914116e-04
 -2.8171507e-01   6.4923974e-05
 -8.9060026e-01   8.3482701e-06
 -9.3776745e-01   6.3471758e-05
 -3.4541440e-01   2.5414804e-04
  1.2099440e+00   8.9075131e-04
 -3.1164760e-02   4.3947200e-04
 -1.0973001e-01   5.7567965e-04
  2.6575726e-01   4.0428844e-04
  1.3988187e+00   2.3098780e-04
  6.1646033e-02   2.4730783e-05
 -4.0557355e-01   1.3575239e-04
  1.6392109e+00   7.4097778e-05
  5.4265094e-01   9.3015900e-05
  2.4192350e-01   2.3789496e-04
  2.6601717e-01   2.1953089e-04
  3.0953828e-01   9.4620911e-05
  1.6626704e-01   5.1880808e-04
  7.9907030e-01   2.1168933e-04
  4.5392483e-01   1.5542527e-04
 -2.5176346e-01   1.0739906e-04
  3.2780442e-01   9.8721834e-04
  9.0645742e-01   9.6464668e-05
 -1.0499018e+00   1.0446964e-04
  2.8435552e-01   4.1263143e-04
  2.9546303e-01   4.6927005e-04
  5.3726375e-01   5.0437223e-04
 -5.7782960e-01   4.3188565e-04
  1.6594340e-01   1.5080865e-03
  6.6472960e-01   1.9272833e-04
 -9.7272617e-01   4.1956123e-04
  3.2420915e-01   1.0127091e-03
  1.4209049e-04   4.5670380e-04
 -6.2093943e-01   2.2587256e-04
  4.6963952e-04   1.5690053e-03
  5.6801103e-03   7.7189261e-04
  2.5939366e-01   1.5060899e-03
  2.1534388e-01   1.7374413e-04
 -2.1514816e-02   1.2412424e-04
 -6.8215942e-01   6.9271118e-05
  7.0332277e-01   9.6830358e-05
  1.5617209e-04   7.5020827e-04
  8.2434621e-03   9.9762797e-04
 -4.5908247e-03   1.7243324e-04
 -2.0057880e-05   2.8903104e-04
 -6.3458108e-04   4.4968835e-04
 -1.1921678e-02   2.6359124e-04
  4.3011419e-02   2.4479942e-04
  1.0391305e-03   1.3868546e-03
 -2.6741615e-03   1.2834246e-03
 -3.8885840e-03   4.1717265e-04
  4.8771878e-03   5.2105787e-04
 -4.3683718e-03   1.0538236e-03
 -2.4826843e-03   4.3748348e-04
  5.4306625e-03   4.6212474e-04
  3.6794684e-04   5.2886014e-04
 -1.1570860e-03   4.8837578e-04
  3.3339430e-04   4.1288923e-04
  1.4209813e-03   6.9598161e-04
  1.7274071e-03   1.0739346e-03
 -8.1111910e-04   2.3907893e-04
  1.3649173e-03   7.9139409e-04
 -1.7259059e-03   3.3771622e-04
 -2.3671822e-03   5.3164223e-04
 -1.3380385e-03   5.6924485e-04
  4.4904817e-03   5.7230669e-04
 -1.1160920e-03   2.9248677e-04
 -6.4583105e-04   5.8060134e-04
  1.8481961e-03   8.1245031e-04
 -1.5040073e-03   6.5383647e-04
 -1.5957920e-03   1.3648219e-03
 -5.6997675e-04   2.6467541e-04
 -6.1005802e-04   4.9845473e-04
  8.1845990e-04   6.1198947e-04
 -5.9525757e-03   2.6485126e-04
  5.2496727e-04   7.5161929e-04
 -2.2392955e-03   6.2175031e-04
 -3.4512465e-03   1.0366076e-04
 -3.1489201e-03   2.8993512e-04
  9.6365099e-04   4.8264064e-04
  1.1681874e-02   5.6619837e-04
 -2.6451391e-03   8.4888883e-04
  1.0690113e-03   5.8518129e-04
 -4.9694148e-01   2.4640767e-04
 -1.5448253e-03   3.5028567e-04
 -1.5252263e-03   6.7642290e-04
 -2.4307400e-03   5.8358593e-04
  2.7852127e-04   6.4229383e-04
  3.4031784e-03   1.3479380e-03
  4.2413693e-04   3.2034813e-04
 -1.1164098e-05   6.0066412e-04
  1.3783998e-04   6.3630589e-04
 -1.0964340e-03   5.6867598e-04
  5.1976315e-04   4.5209975e-04
 -1.0223849e-03   1.2173570e-03
  2.0580742e-04   8.4215176e-04
 -4.6231812e-03   6.0016342e-04
 -2.8756640e-03   5.8412558e-04
  3.5620353e-03   7.2672346e-04
  3.2536100e-04   3.3205940e-04
  1.7291842e-03   4.0700476e-04
 -5.7775585e-04   7.2456576e-04
 -8.1707397e-04   5.0370797e-04
  4.9178749e-03   2.9892274e-04
  6.1762618e-04   8.5295440e-04
 -5.6962692e-04   1.2081682e-03
  1.5417705e-03   8.2868442e-04
 -1.4830506e-03   1.1842528e-03
  1.0612195e-03   5.2244333e-04
 -1.1031538e-03   3.7479322e-04
 -2.0649782e-03   4.9955747e-04
 -7.0749840e-04   1.0155479e-03
 -5.3453888e-03   1.2064599e-03
 -1.3461963e-03   3.4623250e-04
 -3.4245469e-03   1.2694547e-03
 -9.9987362e-04   1.0517836e-03
  1.2722793e-03   2.3401208e-04
 -9.1517117e-04   8.4726256e-04
  7.0948998e-04   7.2747923e-04
  9.0906286e-04   5.7833520e-04
  7.9287577e-04   8.1687357e-04
 -1.1505523e-03   7.5165101e-04
  3.1956858e-03   1.2359525e-03
  6.0042588e-04   1.1687183e-03
 -9.4207656e-04   8.6232979e-04
  6.6032680e-04   4.8458826e-04
  6.0172495e-04   8.9870411e-04
 -3.4118936e-04   3.3779501e-04
 -5.2617922e-02   3.8670585e-04
 -4.6376386e-03   2.1415722e-04
  1.3308808e-03   3.7381219e-04
  2.3200359e-04   8.8374503e-04
 -5.6312507e-05   7.0574868e-04
  4.6052806e-05   6.4578286e-04
 -7.2614350e-03   1.0007694e-04
  5.1458133e-04   3.3223780e-04
 -2.3724858e-03   5.4566422e-04
  2.1682775e-03   6.0675613e-04
  6.0352259e-03   5.2571815e-04
  1.2545753e-03   1.1933031e-03
 -2.4602499e-03   1.3204199e-03
 -3.1717468e-04   7.8868552e-04
  1.7985724e-03   9.5939561e-04
 -3.6634775e-04   2.4498758e-04
  2.1661469e-04   4.7823926e-04
  9.4383582e-03   4.7195691e-04
  7.3564127e-03   5.3469569e-04
 -4.2037820e-03   2.3625056e-04
 -6.3041360e-03   4.9422303e-04
 -6.8800682e-03   7.8901864e-04
 -6.2751276e-03   2.0297052e-04
  8.9949713e-04   2.6549515e-04
  3.0201394e-03   7.9591315e-05
 -1.4762720e-03   6.2542752e-04
  3.1380157e-03   3.0454691e-04
  4.6903804e-02   2.5703563e-04
 -1.6159793e-04   5.3133967e-04
  3.7514218e-03   7.1805943e-04
  3.9272514e-04   9.5279352e-04
 -4.0157069e-03   6.2556053e-04
  2.9214153e-03   8.2130358e-04
  4.6330350e-03   3.9760349e-04
  6.8672444e-04   2.7666069e-04
 -7.4317964e-04   9.0039632e-04
 -1.1931324e-03   1.7387983e-03
  2.0250443e-03   4.9853121e-04
  2.8388321e-03   6.1276654e-04
  2.2207509e-04   4.4601393e-04
  1.9748968e-03   1.0932215e-03
  7.5759261e-04   5.6488148e-04
 -1.2055064e-03   6.5104116e-04
  1.4429121e-01   1.0950542e-04
  1.5923889e-02   2.8853259e-05
 -2.6874489e-01   1.4513984e-04
  2.0030317e-01   1.1484659e-04
  9.8148204e-02   1.0106686e-04
  1.7668469e-01   2.7789305e-05
 -4.9018051e-04   7.1959279e-05
 -4.0084255e-01   6.6501518e-05
  1.1269991e-02   9.3127783e-05
 -6.0771350e-02   3.2607684e-04
  2.2486496e-01   3.2085710e-04
 -4.8311218e-03   5.5595464e-04
  4.7706729e-01   1.7746942e-04
 -7.2309161e-03   2.9890626e-04
  2.9186049e-01   5.9244566e-04
  3.0372205e-01   8.7222899e-05
  3.8939375e-02   1.4782498e-05
  6.1636124e-02   1.3857910e-04
  2.0895645e-01   1.4461055e-04
  1.0322495e-01   6.1812659e-04
 -2.7905554e-02   7.2726340e-05
  4.8857465e-01   7.4416850e-05
  2.5544882e-01   4.0965271e-04
 -8.3700031e-02   2.5000612e-04
  1.8054760e-01   2.1934540e-04
 -6.4978650e-04   1.4263876e-04
  1.7227887e-01   1.3325401e-03
  3.0453998e-01   1.3406113e-04
 -1.7197252e-03   1.1547127e-04
  1.1462127e-01   2.6764153e-04
  4.0764023e-02   9.3156152e-04
  4.4881958e-01   1.1663745e-03
  8.1099995e-04   1.6478926e-04
  2.6492486e-02   3.9345860e-03
  3.3110054e-03   2.4260076e-04
  9.8322844e-04   6.3075149e-04
  2.0191996e-01   3.8923312e-04
  1.9971028e-03   7.2841113e-04
  4.0443945e-03   1.1445455e-03
 -3.2092805e-04   6.8220112e-04
  5.4184557e-03   9.9624554e-04
  1.4572304e-01   1.0524625e-03
 -3.3444560e-01   3.3412522e-04
 -7.8270392e-04   6.1648717e-04
 -1.2960455e-02   5.4615295e-05
  1.0710710e-03   3.8807432e-04
 -4.6164947e-05   8.5529021e-04
 -3.0925807e-03   2.4063692e-04
  3.2331000e-04   6.6730002e-04
  2.9684161e-04   8.2545145e-04
 -1.9118257e-04   1.9204266e-04
 -7.8204852e-05   5.6917162e-04
 -1.9849664e-01   7.3605654e-04
  2.8211749e-03   1.1242607e-03
  4.8776064e-03   6.7293103e-04
  1.1607121e-03   6.1500451e-04
  1.1954075e-02   3.9021157e-05
  1.5652117e-03   7.5136498e-04
 -1.3403619e-03   2.6259595e-04
 -2.8331201e-03   3.9628241e-04
  1.4435684e-03   1.6016508e-03
  5.7551375e-04   1.0900649e-03
 -2.0701666e-03   5.2249205e-04
 -1.5116483e-03   7.0475152e-04
 -1.2320013e-03   5.5161939e-04
  4.8915378e-04   6.2365923e-04
 -8.1564981e-04   1.4571386e-03
 -4.5539108e-03   6.5919827e-04
  2.3759408e-03   9.7081059e-04
  5.1115389e-04   1.2036187e-03
  1.1526679e-03   6.2016945e-04
 -1.4989661e-03   5.7236617e-04
 -3.9580092e-04   3.3524615e-04
  1.2704883e-03   5.9216737e-04
 -5.5050352e-03   8.2129095e-04
  2.0347212e-03   6.1269879e-04
  2.3220612e-04   4.3545949e-04
 -7.1921165e-04   5.2122748e-04
 -8.5212640e-04   7.4531767e-04
 -4.5565271e-04   3.0333307e-04
 -2.6200290e-03   5.4343778e-04
  1.6087356e-03   2.4603916e-04
  1.7706879e-03   1.6891405e-04
  3.4546960e-04   1.1107075e-03
 -2.8595584e-03   8.9318014e-04
  1.3756317e-03   5.5055402e-04
  9.6237153e-04   5.7297398e-04
 -8.0835018e-03   6.2997005e-04
  2.1030863e-01   7.3422678e-05
 -8.7275881e-01   2.4213508e-04
 -4.4867592e-03   4.5762458e-04
 -1.6310278e-01   5.7073950e-04
  5.3682146e-03   3.6616469e-04
  3.9134860e-02   3.3862164e-04
  2.0471949e-03   5.1473005e-04
 -7.4710764e-02   8.0901242e-05
  1.9799188e+00   3.7155547e-05
  2.2879986e-03   5.9696031e-04
 -2.1305596e-03   7.1383285e-04
  1.1043805e-03   6.5597123e-04
  4.4096527e-03   5.5253669e-04
 -2.4779139e-03   6.0882681e-04
 -1.5631199e-03   4.4426552e-04
 -5.5490443e-03   7.5429963e-04
  6.8944751e-04   7.1296847e-04
  1.3675221e-03   6.9864601e-04
 -4.0325262e-03   5.2810146e-04
 -6.9325243e-04   4.0351343e-04
  7.6126387e-05   5.9784617e-04
 -2.0379591e-01   3.5578795e-04
  2.1808639e-03   6.4283545e-04
 -7.8506133e-04   4.7228995e-04
 -3.6702862e-03   1.1408626e-03
  1.3825370e-01   7.5477763e-04
 -1.3109699e-02   2.0026169e-03
  5.7010353e-04   3.2323290e-04
  2.0696020e-03   3.0919682e-04
  4.1983888e-04   6.5858633e-04
 -5.7687826e-04   4.5488740e-04
 -4.1472651e-03   3.7622298e-04
 -1.4823683e-03   9.8604232e-04
 -7.3925807e-04   4.2233765e-04
  4.3870512e-04   1.0193788e-03
 -1.6357343e-03   6.4842607e-04
  2.0437872e-03   4.6993888e-04
 -8.0930190e-03   4.2670517e-04
  1.3020812e-03   7.1345549e-04
  3.1758423e-03   6.2074850e-04
 -1.0841128e-03   5.3902442e-04
 -1.6249866e-04   5.4890424e-04
 -1.1578975e-03   7.2353013e-04
 -4.0476298e-04   5.7412538e-04
 -7.0222473e-01   1.3618371e-04
 -4.1515842e-01   4.3303095e-05
  5.7725972e-01   1.5358148e-04
  8.2011944e-01   9.9713681e-05
 -4.3756497e-01   6.7427864e-05
  4.6805475e-02   4.1715375e-05
  1.3870790e+00   3.1098380e-04
 -1.1691171e-01   4.3601089e-05
  5.3120106e-01   1.8021838e-04
 -3.3057339e-02   4.3025403e-04
  9.2535391e-02   1.3678018e-03
 -1.0897842e-03   7.8209152e-04
 -4.2350686e-01   2.9698055e-04