  3.6392822e-03   8.7819574e-04
 -1.1812532e-03   9.7578892e-04
 -2.0911342e-03   2.2611981e-03
 -1.6865189e-03   1.4318672e-03
  4.0128056e-04   2.0463987e-04
 -3.0950707e-04   1.0526603e-03
 -6.6745409e-04   1.3190889e-03
 -3.2674792e-04   1.0771850e-03
  3.7170236e-03   1.7002574e-03
  2.0822326e-03   1.1163158e-03
 -5.1572607e-03   1.0441085e-03
  8.0384994e-03   8.9458999e-04
 -2.9325418e-03   1.5598338e-03
  3.1131224e-03   1.0375910e-03
 -3.0590489e-04   4.1676030e-04
 -5.1492912e-04   3.6833936e-04
  9.0403575e-04   4.1334159e-04
 -2.4481243e-04   5.8695400e-04
  1.1107238e-04   1.4539385e-03
 -1.1217254e-03   1.5771509e-03
 -6.6230015e-04   5.5623829e-04
 -3.6727237e-05   1.2146829e-03
  5.1186973e-04   6.4663170e-04
 -1.7463812e-03   7.2846242e-04
 -5.9607590e-04   1.0264566e-03
 -6.7107577e-04   2.4288187e-04
 -3.5681075e-03   8.3050173e-04
 -4.8407828e-04   9.9091243e-04
 -2.3556368e-03   1.2339291e-03
 -3.3254176e-04   1.1428780e-03
 -3.3123765e-04   1.1431453e-03
 -2.4864832e-03   1.4801173e-03
  1.7705219e-03   9.9453737e-04
 -1.4612901e-03   1.0447253e-03
  6.5970130e-04   8.4023393e-04
 -2.5754401e-03   1.2841568e-03
 -2.0359378e-04   1.1728752e-03
 -2.1380766e-03   1.2060488e-03
  1.8275998e-04   1.0300044e-03
 -6.3474299e-03   1.6128976e-03
 -1.2425272e-03   8.9239981e-04
 -4.9332045e-03   1.0783975e-03
  7.2729005e-04   2.2352855e-03
  1.4070447e-03   1.8471533e-03
 -8.3577045e-04   8.1126281e-04
 -1.1473590e-03   1.3513570e-03
  5.3529502e-03   9.2235708e-04
 -3.6767879e-04   9.9354470e-04
  3.2215291e-03   7.8245223e-04
  3.6504219e-04   9.3136990e-04
  3.4791408e-03   8.4836263e-04
 -1.3224552e-03   1.0447198e-03
 -3.9582797e-03   7.7184435e-04
  1.5636412e-03   7.4639439e-04
  1.7643005e-03   9.4319903e-04
  5.1398709e-04   1.5110465e-03
  1.6003535e-03   1.0620104e-03
  1.5023063e-03   7.5596815e-04
  3.5948257e-03   1.2160549e-03
 -2.5710507e-04   8.9464273e-05
  3.3408317e-03   6.0369418e-04
  4.4424701e-03   7.2309759e-04
 -7.3977327e-04   1.3095073e-03
 -2.0110602e-03   1.1846761e-03
 -3.1305393e-03   1.2923557e-03
 -2.3842864e-03   4.4912111e-04
 -2.4029627e-04   4.4660861e-04
  3.8364591e-04   1.1745766e-03
  1.3949227e-03   8.6009555e-04
 -6.3492567e-04   1.2617554e-03
 -5.4528397e-03   9.4100111e-04
 -2.5967418e-04   6.1364338e-04
 -3.2358496e-03   1.3736433e-03
 -5.1730743e-04   2.0206471e-03
  3.9011196e-03   8.1803394e-04
  1.4747969e-04   7.5070665e-04
 -3.6647567e-03   1.0372514e-03
  3.4341181e-04   1.2720675e-03
 -2.5468790e-03   2.0841039e-04
  2.1885294e-03   9.1187324e-04
  2.4026632e-03   1.0105368e-03
  2.8096221e-04   4.3386218e-04
  5.6739901e-03   8.7034341e-04
 -1.4625100e-03   1.2033174e-03
 -3.8914441e-03   7.8065548e-04
  2.4675960e-03   1.2283521e-03
  5.4489536e-04   1.3003467e-03
 -4.7906797e-04   7.8154303e-04
 -9.2839764e-07   8.5824064e-04
 -7.5409235e-04   1.1474092e-03
 -5.4922950e-01   7.3777024e-05
 -2.7485943e-01   1.6884867e-04
  4.3879786e-01   3.1664671e-04
 -2.7048852e+00   3.3830252e-04
  1.5978687e+00   4.0754853e-04
 -6.7417743e-04   1.4955106e-03
 -2.6093605e-01   5.0130505e-03
 -2.2891108e-03   6.8972656e-04
  4.4686392e-01   1.6339923e-03
 -1.9034323e-03   1.5148673e-03
  6.0569674e-01   3.5244678e-04
 -2.6168624e-02   3.3222180e-04
  8.4454566e-01   8.6246728e-04
 -4.0485847e-01   7.0573861e-04
 -5.0781766e-04   2.1900510e-04
  5.8229512e-01   9.8765455e-04
 -6.2805110e-01   1.0459775e-04
 -6.4267963e-01   2.2045091e-04
  1.4190175e-01   2.5366584e-03
  8.0870038e-01   1.0209900e-03
 -1.3487077e-03   5.2780280e-04
  1.1455064e-02   1.3613238e-03
  1.8611584e-03   6.9449062e-04
 -1.3632661e-01   2.7743061e-03
  4.5356946e-03   7.7468756e-04
  1.7993383e-02   3.1293100e-03
 -1.3941053e-01   2.1854069e-03
  3.6985092e-03   1.2580183e-03
  6.7270450e-02   1.8209743e-03
  1.3209876e-01   2.5603746e-03
 -1.9092128e-02   3.8787807e-04
 -5.7216931e-02   5.3378707e-04
  1.9137345e-03   2.4310518e-04
  1.2573881e-05   2.9362296e-04
 -1.1327802e-04   6.1998412e-04
  7.2855517e-05   7.2525884e-04
 -1.7359457e-03   1.0636742e-03
 -1.3509174e-01   7.7535486e-04
  6.1419688e-04   1.0174273e-03
 -1.0562970e-03   9.2954334e-04
  1.1055048e-03   4.4645654e-04
  2.4551062e-03   4.0194290e-04
  4.7385935e-03   1.1801726e-04
 -3.3721335e-03   8.9740223e-04
 -4.5094155e-03   5.6096434e-04
  1.3649095e-03   5.4268137e-04
  1.3316764e-03   5.0925621e-04
 -7.7390447e-02   4.1256426e-04
 -4.8882514e-04   5.5995397e-04
  3.4734417e-02   9.4861520e-04
  8.9180551e-04   1.9128674e-03
  1.4207665e-03   7.7249506e-04
 -8.7492121e-04   4.0312333e-04
 -1.9350555e-03   1.0396810e-03
  4.4264196e-04   9.0502348e-04
 -1.0693666e-03   7.1087544e-04
 -5.3681093e-03   5.9972104e-04
 -2.3155787e-03   5.8013346e-04
 -1.4599847e-03   8.5639826e-04
 -4.1782632e-04   6.6780997e-04
  2.4184524e-03   1.1393942e-03
  3.4137812e-04   8.6302799e-04
 -2.9497681e-04   1.2363695e-03
 -2.8872275e-04   6.5041258e-04
 -3.0197883e-03   8.6606410e-04
  3.7992140e-05   9.4356638e-04
  1.3828271e-03   4.4125452e-04
  2.6850009e-03   1.2292973e-03
  1.9503131e-03   1.2426801e-03
 -2.6391495e-03   1.3686983e-03
 -3.6177442e-03   1.0795735e-03
 -3.4896799e-03   9.2439324e-04
  2.5422373e-04   1.8149409e-03
  3.0404415e-03   7.5406290e-04
  1.7697131e-03   4.2185473e-04
 -4.8261083e-04   9.5625018e-04
  5.7643480e-03   1.0197680e-03
  1.6687198e-05   7.0320530e-04
 -7.0731901e-04   1.0602148e-03
 -1.5560193e-03   1.0756075e-03
  2.5197219e-03   1.5356104e-03
 -1.9738104e-03   8.7779824e-04
  5.1699113e-04   1.5473260e-03
  6.8960580e-05   9.1577487e-05
  3.0161226e-03   9.9917548e-04
 -1.9199983e-03   1.4198280e-03
 -1.4301746e-03   5.8022561e-04
 -1.2910188e-03   1.1118599e-03
 -1.0895291e-03   1.3555849e-03
  3.0034129e-03   1.1720571e-03
  5.9788436e-01   1.4829068e-04
 -1.1148186e-02   5.4182712e-04
 -1.5019920e-01   3.7190106e-04
 -3.6593857e-01   3.7775989e-04
 -3.3780795e-01   2.1571976e-04
  2.9802760e-03   1.2646167e-03
 -1.4519542e-02   1.1904772e-03
 -7.0165256e-03   1.5270493e-03
  1.9071384e-04   9.5245644e-04
  6.6192134e-04   1.1305280e-03
  1.2033420e-01   8.7183184e-04
  2.7191484e-02   3.4791342e-04
 -1.1728628e-03   9.5584063e-04
 -1.6912422e-01   7.7429158e-04
 -8.6304089e-03   6.5462053e-04
  1.1563016e-03   7.9234614e-04
  3.6815488e-01   1.8631478e-04
 -8.5438311e-02   7.5500750e-04
  9.2229142e-04   8.2176860e-04
  4.2858008e-02   5.4370548e-04
 -1.1243401e-03   1.0112080e-03
  1.5217137e-03   1.0777364e-03
 -2.0046206e-02   1.0967813e-03
 -8.2319397e-03   7.4603269e-04
 -4.5038181e-04   1.2788632e-03
  7.7822067e-02   1.7121173e-03
 -2.2804877e-02   3.8423028e-04
  2.4621771e-03   1.6507030e-03
  1.9373344e-03   1.2786555e-03
  1.9309192e-03   6.3149288e-04
  1.5530965e+00   2.8920636e-04
  1.4944832e+00   2.3461536e-04
 -3.3445951e-02   1.9858824e-04
 -5.9367907e-01   1.1809173e-04
 -1.1968503e+00   4.7945566e-04
  2.3262789e-03   2.2085703e-03
 -7.8813210e-03   9.6823316e-04
  1.3267961e+00   2.0284164e-03
 -6.3408184e-04   8.4979093e-04
 -1.1478867e-02   3.7864907e-04
  3.2456987e-02   5.6448637e-04
  1.0981054e+00   3.8293362e-04
  1.0306244e-01   8.2407548e-04
  5.1204175e-01   9.7970478e-04
  2.8852144e-01   7.2362414e-04
  7.1859225e-03   3.0622375e-04
 -4.4044712e-01   3.4196864e-04
  6.0674481e-02   9.7743038e-04
 -5.0661754e-04   5.9474504e-04
  7.0253870e-04   2.0021207e-04
  1.1625324e-02   9.1542263e-04
 -3.0716121e-01   1.7250988e-03
 -5.8982277e-04   1.4341377e-03
  2.9268910e-04   7.3727459e-04
  1.8927141e-03   1.1661410e-03
 -6.8937666e-03   4.7053053e-04
 -1.6591512e-06   1.4524595e-03
 -2.4529002e-04   1.2939959e-03
  8.4305659e-04   1.0609159e-03
 -3.5204596e-04   4.3963722e-04
 -1.3461847e+00   6.9319591e-04
  1.9196095e-02   1.6073609e-04
  3.7012890e-03   8.2220434e-04
 -2.1309891e-01   7.9339510e-04
 -3.7046683e-01   6.4747140e-04
  9.9482834e-03   1.2791080e-03
  7.6494121e-04   5.4860482e-04
 -1.5956607e-04   1.2522923e-03
 -4.4971978e-04   1.1498297e-03
  1.4611519e-03   1.3382970e-03
 -1.4031923e-03   9.7458146e-04
 -8.6428091e-04   7.5357244e-04
  4.1759717e-03   5.6479394e-04
  6.3567366e-03   6.0919707e-04
  6.7703184e-03   1.3758398e-03
  2.1820644e-02   1.4143332e-03
  2.1544076e-03   1.0134004e-03
  4.2623850e-03   1.4254524e-03
  2.3964852e-04   7.0094975e-04
  1.3046168e-03   3.1985660e-04
  1.2544428e-03   1.1018404e-03
 -8.2806483e-02   4.9406505e-04
 -4.5592654e-03   1.0387921e-03
  2.7595810e-04   2.0684751e-03
 -5.9453715e-03   1.9564789e-03
  7.9707033e-04   1.3095367e-03
  9.7292587e-03   2.3040890e-04
 -2.3631346e-03   8.3342445e-04
  2.7372059e-03   6.1344024e-04
  2.7753349e-04   8.5283502e-04
 -1.9392194e-01   5.4885010e-04
 -1.0327127e-02   1.0627847e-04
  1.5298706e-03   2.1363820e-04
 -5.8307615e-04   2.2666997e-04
  2.6338839e-03   7.2750053e-04
 -1.9088006e-03   6.6225784e-04
 -3.8050712e-04   2.7699248e-04
 -2.8993248e-03   1.3299863e-03
 -4.1040042e-03   5.3744513e-04
  1.3238303e-03   6.8054599e-04
 -6.4948393e-04   7.8928290e-04
  1.8197235e-03   7.8977889e-04
 -1.7539072e-03   4.2505871e-04
 -4.8869099e-03   3.5405508e-04
  1.3794282e-03   5.3152646e-04
 -9.7082043e-04   1.4084929e-03
 -7.0925144e-04   8.4126327e-04
 -1.8625829e-02   1.0322011e-03
 -1.8895867e-03   7.7361084e-04
  1.2395656e-02   4.0947029e-04
 -1.3452666e-03   9.7128993e-04
  9.7902888e-04   8.8403036e-04
  3.9514848e-03   1.4398182e-03
  1.1328208e-03   1.0952401e-03
  1.3399733e-03   6.7323796e-04
 -3.6692864e-03   9.8533265e-04
 -8.5069193e-03   1.9372825e-03
  2.7866461e-03   8.7407307e-04
  3.5170689e-03   7.4837945e-04
  2.3963351e-03   6.9779868e-04
 -8.9763049e-03   2.2010271e-04
 -1.1819150e-04   1.0435071e-03
  9.0795965e-04   1.1257870e-03
  1.5697935e-01   4.0460788e-04
 -3.6731404e-03   1.1992868e-03
 -8.0727472e-04   7.1015954e-04
  9.6032262e-04   1.3106852e-03
 -8.1984997e-03   8.2702306e-04
  5.1313266e-03   1.2094658e-03
 -4.3351110e-03   8.8042050e-04
 -3.8032194e-03   1.0015772e-03
 -2.3887737e-04   1.2517284e-03
 -8.2961010e-04   5.2105007e-04
  2.1805344e-03   1.1616679e-03
 -7.8306376e-04   9.2299207e-04
  2.2712394e-03   8.2089630e-04
  7.8528485e-04   7.2619168e-04
 -3.2244183e-03   1.2923364e-03
  4.1874641e-04   9.0229441e-04
  4.7258860e-03   3.5779722e-04
 -1.0766617e-03   1.1827727e-03
  5.4586615e-04   6.3401530e-04
 -1.3242376e-02   5.1075313e-04
 -8.1338547e-04   1.1185131e-03
 -4.4285704e-04   1.4052395e-03
  3.4300117e-03   9.1185886e-04
 -8.1189105e-04   5.2347116e-04
  1.1180865e-04   2.1955990e-03
 -2.7226447e-04   5.2282721e-04
  6.7816344e-03   1.1676712e-03
  1.4887084e+00   4.2255461e-04
  2.1281593e-01   3.5289349e-04
  2.8834394e-03   3.3043916e-04
 -2.0355850e-01   2.3271619e-04
  3.0239815e-01   5.3067447e-04
  3.7941861e-03   3.4516180e-04
 -2.4366663e-01   2.4020253e-03
 -2.4090628e-03   1.1429585e-03
  3.4672772e-03   9.6231361e-04
  5.2583747e-02   1.5348224e-03
  6.5800376e-02   2.1735298e-04
  2.4556437e-01   5.7317154e-04
  2.0131866e-02   8.3577051e-04
 -1.7677232e-03   5.3208339e-04
  1.3528152e-01   4.6100994e-04
  6.2972396e-03   8.5605902e-04
  4.8264211e-01   2.9548086e-04
  1.4718162e-02   1.6271438e-04
  4.1546445e-02   2.0177243e-03
  1.6778591e-01   6.6307886e-04
  3.9193849e-04   1.1293687e-03
  1.1788651e-01   1.1250817e-03
  6.6192783e-03   6.1103911e-04
 -4.9218483e-02   5.1289162e-04
  5.6044217e-03   1.2010372e-03
  1.1162674e-03   8.1793306e-04
 -1.1034871e-02   9.4927906e-04
  8.8486308e-03   8.4729469e-04
  1.2747939e-03   3.8641054e-04
 -1.4888634e-02   8.9778437e-04
  8.6772352e-01   9.3063849e-05
 -5.4320391e-02   1.7942578e-04
  7.8825700e-01   4.6071224e-04
  2.4821965e-01   2.4821991e-04
 -3.7170878e-01   2.0217035e-04
  1.8870575e-02   1.9594918e-03
  4.8933494e-01   6.9860788e-04
  4.1605063e-02   1.5967966e-03
  8.4333576e-04   4.9762405e-04
 -3.1781627e-03   7.5681339e-04
 -4.9958831e-01   1.3110966e-04
  6.8595760e-02   2.1202657e-04
 -9.2369534e-02   4.4863456e-04
  3.9828829e-03   7.2557270e-04
  1.8015116e-02   2.0641065e-04
 -8.8550169e-03   2.0102235e-04
 -4.0098032e-01   2.3780581e-04
  3.8904075e-02   3.7590449e-04
  7.7984706e-02   1.5687654e-04
 -1.0693952e-03   6.8425747e-05
  6.9594714e-03   5.4120965e-04
 -4.4362268e-01   5.1407178e-04
  1.5571460e-03   7.2916946e-04
  2.9723663e-02   7.1556441e-04
 -3.4860875e-02   1.1487452e-03
  5.5305194e-03   1.0543350e-03
  5.0806496e-03   2.1781705e-03
 -8.4923089e-02   8.4023009e-04
 -3.1028306e-02   1.7639908e-03
 -2.4570644e-01   2.0342064e-03
  2.4109755e+00   7.1147319e-05
  1.9937180e+00   8.6534092e-05
 -2.0392873e+00   1.6720513e-04
 -5.6025749e-01   1.0857462e-04
  1.2504196e-01   2.7018329e-04
  6.1350077e-01   1.2280415e-03
  3.3344412e-01   5.8259082e-04
  8.8617358e-05   5.1019015e-04
 -1.1701823e+00   1.6248630e-03
  8.2361634e-04   5.6741521e-04
 -3.0509949e+00   1.1256996e-03
 -8.5357881e-01   2.5976051e-04
 -8.1628837e-02   1.4584597e-03
  4.3374319e-03   3.7615956e-04
 -1.1693509e+00   4.9089070e-04
 -7.1611404e-01   4.3739320e-04
 -1.7615203e+00   2.6230767e-04
  1.4187549e+00   1.2494826e-03
 -1.1289915e+00   1.0812813e-03
 -8.7460089e-01   1.2408659e-03
  2.9230434e-03   8.9813152e-04
 -9.7415775e-01   9.1813324e-04
 -3.2227775e-01   3.8025377e-03
  1.6263533e-02   3.8678612e-04
  4.1314313e-04   8.3242072e-04
  6.6729868e-04   5.3221750e-04
  5.5990785e-01   2.1854639e-03
 -4.6854615e-01   2.3705652e-03
 -5.0992012e-01   6.6019068e-03
 -1.1167943e+00   3.0754083e-03
 -7.4120539e-01   6.8382571e-05
 -2.5762973e-02   1.9705571e-04
 -1.9522259e+00   1.3900125e-04
 -7.9172701e-01   9.3156159e-05
  1.3950117e+00   1.4983548e-04
  5.5874956e-01   6.3180272e-04
  1.3777038e-01   3.5768712e-03
  4.1594025e-01   3.4308824e-04
  2.9097157e-02   1.0067734e-03
  4.1520500e-01   1.6896689e-03
  3.3988357e-02   9.9983660e-04
  1.2306814e+00   4.0742627e-04
  6.0000116e-01   1.0199654e-03
  6.2235010e-01   6.3884672e-04
  2.0621581e-01   4.5543929e-04
 -3.9358912e-03   3.6343012e-04
 -1.4959128e+00   2.3819706e-04
  5.4152924e-01   2.0152892e-04
 -4.5027104e-03   1.6036650e-04
 -1.0637083e-01   3.1958238e-04
  3.5856384e-01   1.2658564e-03
 -6.0385501e-04   1.5554053e-03
  5.9293437e-01   8.2441955e-04
  4.8029363e-02   1.3741227e-03
  5.4169660e-03   3.1832885e-04
 -1.7741020e-01   4.5320627e-04
  2.5373819e-01   2.2587925e-03
 -1.9077885e-01   3.1596597e-03
 -7.8186300e-03   9.3965378e-04
 -6.9328188e-04   1.3314830e-03
 -4.8186611e-03   4.7108030e-04
 -2.3990318e-03   1.8420393e-03
 -5.5636601e-03   9.5972390e-04
  1.4310412e-03   1.6167358e-03
 -3.2212702e-06   1.2031774e-03
  6.7391193e-05   3.3536527e-04
 -1.8630263e-03   7.6766353e-04
 -8.7785796e-05   6.7296904e-04
 -2.4352893e-03   1.2436924e-03
 -4.3956935e-03   6.2903774e-04
 -2.1347951e-05   1.7725342e-03
 -2.5090354e-04   5.9330487e-04
  5.7530124e-03   1.4883013e-03
 -6.1599669e-05   5.2925386e-04
 -3.5986616e-03   8.3934329e-04
 -9.3183544e-04   4.9818336e-04
 -6.0744723e-04   9.5791894e-04
  1.7451742e-04   6.8580220e-04
  7.1887654e-05   9.1337820e-04
  1.6496720e-03   1.0300904e-03
 -6.2784273e-04   1.4963486e-03
 -4.5734399e-05   6.9403125e-04
  9.7001540e-03   6.9411466e-04
 -8.8551431e-04   1.3486820e-03
  2.3172253e-03   8.8364491e-04
 -8.9050885e-03   6.4987520e-04
  9.0317684e-04   1.4700769e-03
  7.2002405e-04   7.3262240e-04
  5.6411093e-04   9.8573335e-04
  1.2851807e-03   1.6727675e-03
 -1.0764788e+00   1.2854021e-04
 -1.2198331e+00   5.9942719e-05
 -1.3547184e+00   7.1069080e-05
  3.0831680e-01   4.7889291e-05
 -5.3805178e-01   2.6409098e-04
  2.7651522e-01   1.1764041e-03
  8.1880182e-01   1.3525400e-03
  2.9412228e-01   6.1462529e-04
  8.6866833e-02   6.7029218e-04
  8.2271628e-02   7.7504950e-04
 -1.1494219e+00   2.5365083e-04
 -2.8787893e-01   1.9601219e-04
  1.0042643e-01   3.7710424e-04
 -1.4359511e-01   7.0900936e-04
  1.4144525e-01   2.3799646e-04
  1.3688282e+00   1.4514556e-04
 -5.0176430e-01   3.2716128e-04
  3.2693869e-01   3.4569137e-04
  5.9966737e-01   3.5165664e-04
  7.6173460e-01   2.2038132e-04
  1.4797817e-02   1.2993763e-03
 -7.0837088e-02   8.2918466e-04
  9.0614455e-03   1.2025493e-03
  8.7677205e-01   1.4938841e-03
 -3.7974708e-03   2.6142129e-04
 -5.0543463e-03   4.8719448e-04
 -1.1630217e-03   3.7807532e-04
 -1.3179943e-01   1.2530209e-03
 -4.5836018e-03   1.5756624e-03
 -1.8400519e-01   8.7940384e-04
 -4.5243199e-03   3.1676993e-04
  1.8669121e-01   1.0220350e-03
 -2.2099393e-03   8.8936777e-04
  8.4245484e-04   7.6944183e-04
  7.3370701e-03   2.6832442e-04
  2.1645313e-03   4.5000692e-04
 -2.3242891e-04   1.5553155e-03
 -1.4252733e-02   9.1952662e-04
  3.0792064e-03   1.3228692e-03
 -3.2744769e-03   1.0135237e-03
  1.6698707e-03   6.6232780e-04
  4.3101801e-04   6.2737358e-04
 -1.4678257e-03   7.1978057e-04
 -8.3128607e-04   5.7793636e-04
  2.3419512e-03   6.0134887e-04
 -4.0784441e-03   8.4869092e-04
  3.6507413e-02   6.3298334e-04
 -3.9248853e-03   7.7848020e-04
 -2.5039162e-03   1.2615536e-03
 -5.2140825e-03   1.7591727e-03
  1.7257808e-03   8.0973969e-04
  7.2132236e-01   9.7488635e-04
  7.5965683e-04   1.1154462e-03
  1.9062354e-04   1.0451557e-03
 -2.8078551e-03   7.9343322e-04
 -6.7373697e-04   1.4027902e-03
 -3.7260157e-05   1.0179842e-03
  1.4079276e-03   8.3432626e-04
 -2.4818175e-04   8.6602144e-04
 -1.5427684e-04   5.4652366e-04
  5.5920744e-01   1.1401904e-05
 -9.0600848e-01   6.3583371e-05
  6.8460590e-01   2.0956351e-04
  6.6176897e-01   1.6493317e-04
 -2.0806720e+00   1.6787344e-04
  5.8607978e-04   9.7552408e-04
  1.9480323e-03   5.0423434e-04
 -7.7736121e-01   1.8523741e-03
  1.6746813e-03   1.0933941e-03
  8.2874013e-04   7.8644237e-04
 -9.9391949e-01   4.5281381e-04
 -5.8341080e-01   1.7234725e-04
 -7.1784627e-01   6.7539758e-04
  3.3733048e-03   2.5210896e-04
  4.3862171e-02   2.9779295e-04
  2.6286572e-01   3.9772448e-04
 -8.3800185e-01   1.6080221e-04
  2.7206326e-01   4.8152191e-04
 -2.2959931e-01   1.2416124e-03
  5.0927475e-02   6.1963568e-05
 -4.2644840e-02   6.0661335e-04
 -3.0576405e-01   7.7940873e-04
 -1.8919623e-01   7.5797806e-04
 -2.1419222e-03   1.7666152e-03
 -2.2530258e-01   7.7532139e-04
  2.0160102e-03   9.1499789e-04
  8.6239167e-03   1.4037723e-03
  2.2446681e-04   7.9057558e-04
 -8.7821022e-02   1.1872543e-03
 -2.4921244e-01   7.6737965e-04
 -6.9727844e-01   7.3693205e-05
  6.0172272e-01   6.1788407e-05
  3.5398534e-01   2.3526602e-04
  1.2267524e+00   9.5012911e-05
  7.7479547e-01   7.2082294e-05
 -9.1638556e-03   9.6150691e-04
 -5.2818108e-01   7.1458390e-04
 -9.9798143e-02   5.2210840e-04
 -9.2592007e-01   7.2211056e-04
 -8.6380333e-01   7.4040238e-04
 -2.8880894e-01   3.6466992e-04
 -1.1532044e-01   3.6118712e-04
  5.4041964e-01   1.9306714e-04
 -2.5031084e-01   3.6955927e-04
 -6.8152823e-02   4.0754639e-05
 -1.7500629e-01   2.9592874e-04
  1.2406204e-01   1.3529592e-04
 -7.7226385e-02   5.4425647e-04
 -1.5045682e-01   7.0502126e-04
 -3.9569694e-01   5.1401486e-05
 -4.1297564e-01   9.2275348e-04
  4.6495807e-01   3.2024321e-04
 -4.4411796e-01   7.8495592e-04
 -2.9479593e-01   5.2101171e-04
  3.4619135e-01   5.6320050e-04
  6.7963237e-01   1.1014258e-03
 -3.5057175e-01   6.2637700e-04
  4.9428582e-02   1.1679933e-03
  5.3483685e-03   1.1015245e-03
 -2.0260978e-02   3.0396736e-04
  5.2462709e-01   4.8554160e-05
  5.8983815e-01   3.8181584e-05
  1.2650405e+00   1.9084240e-04
 -3.4182942e-01   9.8094650e-05
 -3.2266310e-01   1.7759744e-04
  3.2007079e+00   9.3381293e-04
 -2.9902384e+00   1.0138849e-03
 -1.3750429e+00   8.9663296e-04
 -2.0205197e-01   3.5632541e-04
 -7.7081048e-01   8.2854781e-04
 -5.9773284e-01   9.3638046e-05
  2.5325384e+00   1.7607235e-04
 -1.0965799e+00   9.7784949e-05
 -2.9701639e-02   1.6126057e-04
  6.2053472e-02   1.1097277e-04
  9.0334249e-01   3.2774662e-04
  7.5791341e-01   2.7561162e-04
 -7.4517912e-01   1.7906619e-04
 -1.5430386e+00   5.1955110e-04
 -1.9238523e+00   1.2820298e-04
 -4.4000447e-01   4.4726185e-04
  2.5935763e-01   6.5704394e-04
 -2.5305229e-01   1.4341795e-03
 -7.5480086e-01   7.8890513e-04
  2.7275297e-03   4.4003167e-04
  5.6817454e-01   1.5836842e-03
 -4.1384557e-01   6.0706405e-04
  1.7028807e-03   3.7689667e-04
 -5.0174701e-03   9.9806837e-04
  3.0622078e-04   5.4548983e-04
 -4.0614885e-01   3.6152524e-05
  2.8747693e-01   1.1865987e-04
 -1.7106725e-01   3.2645476e-04
  2.5816395e+00   1.9828575e-04
 -4.9427885e-01   1.8183095e-04
  2.4120876e-01   1.6782463e-03
  3.0706444e-01   2.1169838e-03
  3.6426562e-05   2.2075827e-04
 -1.5026081e+00   1.6064268e-03
 -4.3069320e-03   8.3036325e-04
 -5.2959824e-01   1.6218311e-03
  5.7239033e-02   5.0418166e-04
 -2.8222790e-01   6.8495481e-04
  5.2760472e-03   1.3318238e-03
 -3.4998325e-01   4.9266871e-04
 -5.8670700e-02   7.8671728e-04
 -2.2525190e-01   2.6686347e-04
  8.9879176e-03   4.7323632e-04
 -5.3284973e-01   6.0355640e-04
 -9.1275439e-02   1.0905531e-03
 -6.0432917e-04   1.1683198e-03
 -3.2717890e-01   1.6618514e-03
 -6.6785829e-04   1.7031098e-03
  2.1274043e-04   1.1092968e-03
  4.0065125e-01   8.8669237e-04
  1.7056256e-03   5.6951563e-04
  3.3314656e-02   1.0539637e-03
 -1.4158060e-02   3.4677010e-04
 -9.6506663e-02   6.4158854e-03
 -5.3988057e-01   1.5510027e-03
  7.9283260e-02   2.1828547e-04
  3.5626334e-01   2.5144866e-04
  3.6437869e-02   2.6803528e-04
  2.3243570e-01   3.0657390e-04
  8.4654562e-02   2.7328360e-04
  1.9556323e-01   1.0930960e-03
  1.9989531e-02   9.6615707e-04
  3.9981154e-01   2.1139374e-04
  2.9703410e-02   2.6133127e-04
  1.8801594e-02   5.4647122e-04
 -8.0400229e-02   2.4769173e-04
 -8.0152520e-04   1.8934559e-04
  4.3368554e-03   1.3956343e-04
  1.3685822e-02   2.4908915e-04
  5.3258622e-01   1.9977969e-04
 -6.9357790e-03   3.3372690e-04
 -7.4876972e-02   2.7645240e-04
  2.9721045e-01   4.0922777e-04
  2.0383424e-03   5.9905893e-04
 -8.2248464e-02   4.4483857e-04
  2.1156198e-01   1.0465295e-03
  7.8934088e-04   3.7982099e-04
  1.1146012e-01   1.3865825e-03
  8.6733699e-02   2.0921023e-03
 -1.1065440e-02   4.0794874e-04
 -1.1135627e-01   1.1432049e-03
  5.0986502e-03   5.8050238e-04
 -1.5579171e-03   1.3456057e-03
 -1.6574666e-01   6.0619402e-04
  6.0934792e-03   9.1407716e-04
  9.9499428e-01   5.8089616e-05
 -1.4811914e-01   4.3899290e-05
  4.2009729e-01   3.1936364e-05
  5.1406777e-01   1.4544434e-04
 -9.0154129e-01   5.9453341e-05
  5.5337336e-04   7.1147137e-04
 -3.7564116e-03   6.4625248e-04
 -5.9668404e-01   1.0518851e-03
 -1.6905773e-01   5.2303658e-04
 -9.7066164e-02   7.4332632e-04
 -2.6651302e-01   1.8871334e-04
 -8.1565845e-01   2.3515167e-04
 -1.1612663e+00   2.6088257e-04
  6.3262361e-01   2.7251383e-04
 -9.7545020e-02   3.6123267e-04
 -2.6952851e-01   3.3302186e-04
 -6.7232382e-01   1.0864692e-04
 -1.3179616e+00   4.5269143e-04
 -3.6872002e-01   1.0861924e-03
  1.3060129e+00   2.5022370e-04
 -1.8832599e-01   7.4887538e-04
 -5.8436416e-02   2.1714356e-04
 -4.0577033e-01   1.2903459e-03
 -5.8187682e-02   2.2107111e-03
 -2.6114979e-03   2.3858092e-04
  4.5448428e-01   2.4228874e-03
  6.6425913e-04   1.1076023e-03
 -3.3486609e-03   9.3649206e-04
 -1.9390781e-03   7.1181566e-04
 -5.1333804e-02   6.1937480e-04
 -4.8664704e-05   9.0321997e-04
  3.2493323e-02   1.1200799e-03
 -9.5937360e-04   1.1665435e-03
  6.2145974e-04   1.4748623e-03
  1.1677034e-03   1.2074538e-03
 -2.4682649e-03   1.2104044e-03
 -2.4200929e-03   3.7269981e-04
 -9.7649876e-04   1.4334030e-03
  2.9602824e-03   1.3994512e-03
  2.4267638e-03   9.5793698e-04
  2.3948124e-03   1.1872727e-03
  1.7010504e-03   8.6953916e-04
 -7.0496150e-03   5.7285151e-04
  2.0733914e-04   5.9653143e-04
 -1.5440988e-03   1.1443653e-03
  3.0200679e-03   1.2585016e-03
 -4.5326483e-03   4.3280228e-04
 -8.2375319e-04   7.4177916e-04
  3.2674163e-03   1.5863901e-03
  1.2049144e-03   1.6555145e-03
  2.8138107e-03   5.4593664e-04
 -1.5769070e-03   1.4952010e-03
  4.2561963e-03   6.7003985e-04
  7.8193162e-04   6.5592822e-04
 -4.3244933e-04   5.1723263e-04
  1.3337046e-02   1.9052486e-04
 -3.0314780e-04   1.3129910e-03
 -4.5779886e-04   1.3045381e-03
 -1.0556129e-03   1.0171060e-03
 -2.0178051e-03   8.1358367e-04
  1.4857338e-03   1.1127332e-03
 -2.3433332e-01   1.6838035e-03
 -1.0368146e-02   1.0515704e-03
  5.0314184e-04   8.3049742e-04
 -4.4322331e-03   9.7957905e-04
 -3.7460139e-03   4.0919671e-04
 -1.1496929e-03   1.1853136e-03
 -1.7405598e-03   8.0639735e-04
  6.2876695e-04   4.3625978e-04
 -4.5852133e-04   8.0063689e-04
 -7.0631327e-03   6.3485425e-04
  3.9612647e-04   1.0113391e-03
 -3.7398676e-03   2.0886662e-03
 -7.6992367e-04   3.8553262e-04
 -1.7777749e-03   9.8753243e-04
 -3.2025287e-03   1.0781904e-03
 -2.6985989e-03   9.0173882e-04
  6.6519435e-03   1.1506064e-03
  1.4801474e-03   8.4286771e-04
 -5.3009408e-04   1.2303424e-03
 -1.8002185e-03   6.1797397e-04
 -3.6702756e-04   9.8959543e-04
  8.2771800e-04   8.0272759e-04
  8.4487943e-04   7.6219253e-04
  1.6993451e-03   7.2718755e-04
  7.5168675e-04   3.4637444e-04
  3.1904997e-03   9.5168006e-04
 -1.8869244e-03   7.4521324e-04
 -3.0766008e-04   1.0999175e-03
 -5.8390344e-03   1.5061981e-03
  1.0023468e+00   4.4386536e-05
  6.0968280e-01   9.1278043e-06
  5.2891982e-01   3.1409279e-04
  1.0726796e+00   1.3859390e-04
  6.9394869e-01   5.5795474e-05
 -7.9473071e-03   3.8370790e-04
  3.8287666e-02   2.7482084e-03
  1.1683297e+00   1.6791628e-03
 -1.3194472e-03   4.2184899e-04
 -8.7577133e-03   1.6787664e-03
 -1.2908563e-01   9.9523005e-04
  3.2848815e-04   2.0818313e-04
  8.5626435e-01   1.1024139e-03
 -5.8328378e-01   1.5199486e-03
 -1.7446662e+00   1.1305681e-03
  1.0410774e-01   4.9121596e-04
  1.8331919e+00   3.3792807e-04
 -2.6437543e-02   5.6689489e-04
  6.1288547e-02   1.5007523e-03
  7.9077519e-02   4.4954105e-04
  1.9702695e-02   1.9129768e-03
  1.4484526e-03   8.2787842e-04
  9.8521262e-03   2.6979514e-03
  2.3130564e-01   1.7226624e-03
  3.5241234e-01   3.1674714e-03
  9.7454496e-05   6.5735355e-04
  1.3463903e-03   9.9855952e-04
 -5.5962559e-03   8.8105875e-04
  4.1155732e-04   6.5263169e-04
 -2.2077607e-03   9.8863163e-04
  5.3092711e-02   1.6963513e-05
 -4.5203682e-02   2.8401451e-05
  7.2542405e-01   9.8305227e-06
 -6.6410905e-01   4.3707110e-05
  1.1815394e-01   7.6256227e-05
  3.1362566e-01   3.5648997e-04
 -1.6905615e-01   4.1798086e-04
  5.7868630e-01   1.2624881e-04
  7.8240591e-01   2.6683623e-04
 -1.5707166e+00   5.3577323e-04
 -3.6866236e-01   2.3308283e-05
  2.9966721e-01   1.3354601e-04
  5.9836859e-01   4.1143092e-05
  1.1711040e+00   1.6550708e-04
 -6.9579154e-01   4.3053129e-05
  3.1399200e+00   1.4909862e-04
 -2.5741110e+00   2.4454966e-05
  1.3032749e+00   6.3130719e-05
  4.6824764e-02   7.6766868e-05
  1.3414633e-01   2.8483339e-05
  3.4170768e-01   1.6574406e-04
 -7.2795516e-01   2.6143334e-04
  8.9740753e-01   2.3825714e-04
  8.3079070e-02   3.7508225e-04
  6.4358783e-01   2.3949434e-04
 -7.4070066e-01   1.5213509e-04
 -9.9324989e-01   5.7497702e-04
 -6.4073104e-01   8.4413728e-04
  7.4314937e-02   9.3642977e-04
  1.6161090e-02   2.9415733e-04
  1.5712906e-01   2.8619723e-04
  3.3190320e-03   5.9108576e-04
  3.9519533e-03   6.0120696e-04
  3.9308256e-04   3.8037094e-04
 -6.3670211e-04   3.9000376e-04
 -1.5673235e-05   7.0813595e-04
 -2.0508813e-03   7.5091113e-04
 -1.1043215e-02   5.6971639e-04
  1.6674710e-03   1.5859590e-03
  7.3135574e-04   1.9092662e-03
 -6.1214948e-03   3.7098830e-04
 -2.0869213e-04   5.6787027e-04
 -1.0009888e-03   8.3132659e-04
 -1.6678001e-03   2.9523432e-04
 -3.6931632e-03   5.1951333e-04
  3.0416762e-03   5.6993263e-04
 -1.5601018e-02   3.4785885e-04
 -4.3053757e-03   7.9332601e-04
  7.5149727e-03   5.0930987e-04
  5.4960246e-03   6.8927242e-04
  3.3252235e-04   6.4188906e-04
 -5.3061225e-04   4.1330230e-04
 -8.8005170e-04   1.2466336e-03
 -3.0598324e-03   1.0983440e-03
 -8.2037039e-04   8.7385962e-04
  1.1968468e-03   1.0891667e-03
  1.0208275e-04   5.9175794e-04
  1.7109530e-03   8.9456048e-04
 -5.1499490e-05   7.1247516e-04
 -1.6124651e-03   7.4363273e-04
  5.8256392e-03   7.3778711e-04
 -2.3981128e-03   1.3290884e-03
 -6.4303414e-03   1.5530835e-03
 -7.3661254e-04   3.2862733e-04
  4.2078076e-03   1.2152098e-03
 -4.4192760e-03   9.4995700e-04
  1.7575157e-03   5.0405168e-04
  1.5238108e-04   1.2053401e-03
  1.7184574e-03   4.8630196e-04
 -2.1003264e-03   1.1172404e-03
  6.2999764e-04   1.0750733e-03
 -7.6074577e-03   9.3436631e-04
 -1.2477368e-04   7.9646864e-04
  3.1698524e-04   4.3362458e-04
 -6.8934442e-04   7.2166731e-04
  2.6723305e-03   1.3884549e-03
 -3.3787906e-03   1.5848611e-03
  5.1937313e-03   7.7742286e-04
  1.2842726e-03   8.1655878e-04
 -3.0876792e-03   8.1705133e-04
 -3.5464313e-04   1.0954322e-03
 -5.6211872e-04   1.0838259e-03
  8.0033194e-04   8.4777025e-04
 -7.3892501e-04   1.2639123e-03
  3.8620178e-03   6.9021678e-04
 -9.5912453e-04   3.9045786e-04
 -6.9786969e-05   1.4912984e-03
 -1.5747722e-03   1.8589746e-03
  1.8817958e-04   3.4769045e-04
 -1.1656136e-03   8.3620625e-04
 -1.5973900e-03   1.6531298e-03
  3.2347004e-04   1.3618236e-03
 -5.1482520e-03   8.5812161e-04
  1.0889785e+00   1.1339004e-04
 -7.0299441e-04   1.8628077e-03
  1.7984392e-03   8.8888849e-04
  5.6014615e-01   6.6357089e-04
 -4.1512960e-01   4.3773957e-04
  1.3129499e+00   2.1312476e-04
 -8.5072429e-04   7.9373299e-04
 -1.5141977e-03   1.3322334e-03
 -1.3139360e-01   1.6955308e-04
  2.1377812e-01   1.4239193e-04
 -1.3855051e+00   5.4876145e-05
 -2.5597540e-01   1.1386758e-04
  1.7995072e-03   1.2814242e-03
 -6.2240756e-01   9.0988549e-05
  4.7050870e-04   7.6781865e-04
 -2.0034451e+00   5.4552722e-05
 -3.4232578e-01   5.8508114e-05
  1.6135745e-01   3.3019372e-04
  8.1624281e-01   9.3264032e-05
 -1.1589697e-01   1.3041922e-03
 -1.7646989e+00   9.1235226e-05
  2.9925685e-03   1.5154165e-03
  1.3390437e+00   1.4259664e-03
  6.6486228e-01   6.5430395e-05
  1.5017543e+00   8.4760395e-06
  2.6168278e-04   6.3491747e-04
  1.1398720e-01   1.0528234e-04
 -1.6848691e-03   2.5501091e-04
  3.2159346e-03   3.5714253e-04
 -1.1000798e-02   1.1126053e-04
 -2.0190841e-01   1.5824404e-05
 -9.7325794e-02   8.9857618e-05
 -1.2151280e-02   4.2949090e-05
 -3.1290582e-01   2.7816545e-04