 -1.2693255e-01   2.9010153e-05
 -5.6366172e-02   2.1908240e-04
  1.3023148e+00   3.3358744e-04
  3.7517089e-01   3.1391546e-04
  6.7815644e-01   1.9119965e-04
 -3.2531548e-01   5.8530277e-04
  2.7751055e-01   4.3236418e-04
 -1.7291327e-01   1.9721516e-05
 -1.1763487e+00   5.0504977e-04
  7.0664654e-03   5.6486466e-04
  2.8165735e-02   1.2144262e-03
  1.7187142e-01   2.7114754e-03
  4.4359171e-01   1.7201955e-03
  3.9509600e-03   1.7072220e-04
 -1.8534330e-01   8.9445664e-04
  1.0446335e-01   5.2122021e-04
  5.9822393e-03   4.0245109e-04
 -9.1857016e-02   2.1822394e-04
 -3.5911399e-01   5.1936007e-04
 -5.1453167e-01   3.7120446e-04
 -2.4487654e-02   1.6698724e-04
 -9.8761795e-03   4.7522571e-04
  2.3205271e-02   1.5635378e-04
  4.1399393e-02   3.7129730e-04
  3.4796941e-01   5.6701759e-04
  7.1286988e-01   6.3326460e-04
  5.9064811e-01   7.0728251e-04
  1.5366220e-01   2.4647338e-04
  5.2368152e-03   6.7065883e-04
  6.3702339e-01   1.2981006e-03
  5.3232573e-03   3.2508321e-04
  1.2234190e-01   4.0560457e-04
  5.8272551e-03   5.9727597e-04
  1.0812571e-05   8.3586150e-05
  1.1506808e-01   2.3007476e-04
  1.1042937e-03   9.9525391e-04
  5.5029471e-03   3.3511393e-04
 -5.3907367e-03   2.1493244e-04
 -6.3436702e-02   1.1219267e-03
  2.9276978e-04   4.0082668e-04
  6.6387153e-04   8.2284270e-04
  1.5584420e-02   1.7440349e-03
 -4.1953139e-03   5.6138053e-04
 -2.5976452e-03   7.9716416e-04
  1.6788544e-01   3.0241950e-04
 -6.5732099e-02   4.4785884e-05
  4.3120174e-04   2.3996853e-04
  1.2436382e-02   3.0223612e-04
 -2.4044071e-01   1.4643592e-04
  3.9203456e-03   3.2488312e-04
  1.5580723e-01   3.3860726e-04
  3.8020159e-03   1.3780766e-04
  4.7177426e-03   5.1041623e-04
 -2.3221672e-03   5.2445906e-04
  3.1203090e-05   6.8228500e-04
  2.1556618e-03   6.4955401e-04
 -9.9459952e-03   6.3700299e-04
  2.2513208e-03   2.4397322e-04
 -1.3866966e-02   5.1371969e-04
  5.7912659e-04   3.9637237e-04
 -1.2868592e-02   1.0402768e-03
  5.9285440e-04   8.0632366e-04
  2.1547757e-03   3.3313138e-04
 -2.6225153e-02   3.8776937e-04
  4.5971036e-01   1.1788681e-04
 -5.7705597e-04   6.2695070e-04
 -2.0247465e-02   5.6764041e-04
 -2.0574231e-04   3.4932626e-04
 -7.5929123e-03   1.3050777e-03
 -1.5736931e-03   2.1459194e-04
  7.9634163e-04   2.8861524e-04
  1.0817125e-01   1.4807006e-04
 -1.6282702e-02   1.3906497e-03
 -9.4699869e-03   2.5468491e-04
 -9.7751357e-03   9.3680818e-04
 -3.8828119e-03   1.1333936e-03
  1.4778499e-03   1.1451895e-03
 -2.1518460e-03   1.0284833e-03
  3.5182810e-01   1.5094171e-05
  3.8744882e-04   3.2523155e-04
  1.7895829e-03   6.4585946e-04
  2.2355325e-03   6.6001242e-04
  4.3166918e-03   8.0741680e-04
 -1.9234316e-03   3.1553305e-04
  8.8882109e-04   2.9686844e-04
  6.2996843e-03   8.0463605e-04
 -8.5852481e-04   8.7344652e-04
  5.1958440e-03   1.0708480e-03
  5.2411733e-03   6.7094814e-05
 -1.5182823e-01   5.6366920e-05
 -6.7341959e-01   8.2062114e-05
 -5.3050954e-02   1.4920167e-04
 -1.9385512e-01   1.3196190e-04
  1.3356527e+00   6.8934292e-05
 -1.0721023e-01   6.1357081e-05
  5.8156544e-01   1.7147487e-04
  7.3596376e-01   1.8450942e-04
  8.9867963e-03   3.2092052e-04
 -1.1258150e-03   3.9249865e-04
  3.2311773e-03   3.3901996e-04
  2.6070248e-04   3.3999351e-04
  5.2436657e-02   1.6943348e-04
 -1.6680789e-03   3.9236763e-04
  5.7801595e-03   1.8052918e-04
 -8.7789619e-01   1.2915694e-04
 -4.0902235e-03   7.2730050e-05
 -6.1029196e-01   1.0193626e-04
 -6.7555130e-02   2.4623526e-04
  1.9420430e-03   1.7547037e-04
 -1.7182465e-01   5.2298344e-04
 -1.2959652e-01   3.4072876e-04
  1.0113468e-02   3.5101210e-04
 -5.8973506e-02   2.1407555e-04
 -4.0285208e-04   2.2744283e-04
  4.7022974e-01   1.1714092e-04
 -1.2186633e-01   5.1945339e-05
 -5.2758801e-04   3.7778055e-04
 -7.6113202e-02   3.8992474e-04
  4.7587365e-04   6.0797454e-04
 -3.5393913e-03   1.3409252e-04
  1.9118492e-01   3.7666582e-04
  3.2841769e-01   2.1339385e-04
 -4.3477711e-01   1.6035598e-04
 -2.2864211e-04   5.4255110e-04
 -9.3607896e-04   2.2255270e-04
  1.9690886e-01   3.3542546e-03
  7.8666606e-04   5.2501756e-04
 -2.1817524e-03   9.3401212e-04
  3.4266552e-03   3.4618785e-04
  2.7456039e-04   1.6051281e-04
  2.7527404e-04   8.8711776e-04
  1.1424902e-01   8.7926537e-04
  4.8023765e-04   2.5031550e-04
  2.4424747e-03   1.8102780e-03
  2.5589240e-03   8.9484005e-04
 -2.4316047e-04   1.3479624e-03
  4.1990474e-04   5.4634956e-04
 -1.3421170e-03   3.5750086e-04
 -6.8519427e-04   1.1510802e-03
 -2.8308628e-03   6.4259360e-04
  2.9372727e-03   6.3623965e-04
 -1.3212999e-03   9.7835262e-04
  5.0474814e-04   7.5996685e-04
  1.2780236e-03   7.9575600e-04
  1.5318790e-03   8.5735868e-04
 -9.6327317e-04   5.3333538e-04
 -1.9284623e-04   7.2871795e-04
 -2.4294972e-03   9.8067627e-04
 -3.2003089e-03   4.9655221e-04
  6.1570056e-04   4.9953756e-04
  5.2714086e-04   9.7527431e-04
 -2.0018923e-03   8.5834309e-04
  7.0808362e-03   4.6561664e-04
  1.5655815e-03   1.0973925e-03
  7.0486148e-04   7.3697080e-04
 -2.9960810e-03   1.1879556e-03
 -6.0539378e-04   1.0983739e-03
  3.0054441e-03   8.2431361e-04
 -4.0109279e-03   8.7395223e-04
 -5.9088082e-03   3.4532533e-04
 -1.1076314e-03   6.0619513e-04
 -6.0440009e-03   5.6525262e-04
  4.7276236e-04   3.2516374e-04
  2.1300854e-03   1.3117049e-03
 -1.7131234e-03   6.1292597e-04
  2.0548387e-03   4.6849993e-04
 -4.3237749e-03   2.6576209e-04
 -1.5913595e-03   1.1953409e-03
 -3.3804943e-05   7.6528225e-04
  3.3148685e-03   4.8396765e-04
  2.0017144e-03   6.1611464e-04
  1.4277484e-03   2.8940267e-04
 -1.2963567e-03   4.7738833e-04
  2.0221840e-03   5.7071121e-04
 -1.4188284e-03   9.6090755e-04
  1.5138414e-03   1.4462256e-03
  6.9761050e-01   1.7443910e-04
  2.1309707e-04   2.1765991e-04
  1.8456076e+00   1.7792192e-04
  6.3059121e-01   6.8536770e-05
 -6.8660027e-01   1.4069105e-04
  1.7261378e+00   1.6027136e-04
  1.2635114e+00   1.3610798e-05
  1.7175595e+00   2.3130611e-05
  2.0604230e-01   4.4333367e-04
  3.1462449e-01   2.9733949e-03
 -9.2365158e-01   2.4905865e-04
 -7.1222499e-02   7.9527806e-04
 -2.3255202e-01   1.0927274e-03
 -2.3459157e-03   5.0368276e-04
 -7.2134352e-01   4.2107722e-04
  1.2846363e-03   8.2583429e-04
 -8.8325769e-02   9.1919635e-04
 -3.8317513e-01   2.8406951e-04
  2.0658357e-01   3.4293084e-04
 -8.0741823e-01   6.4884115e-04
  2.6702887e-01   1.5154884e-04
 -1.5910831e-01   7.3697395e-04
 -3.1249115e-02   6.8126828e-04
  1.9574580e-01   1.5508037e-04
 -1.0827436e+00   1.8979120e-04
 -6.6781908e-01   4.3221060e-04
 -4.1048941e-01   1.3153660e-04
 -8.2346874e-01   2.7914924e-04
  2.1226767e-03   3.0210949e-04
 -2.6810712e-01   4.3518978e-04
  3.1237727e-01   7.0533616e-04
 -4.6597120e-01   1.4000990e-03
 -3.7078275e-03   5.3306576e-04
 -3.7687300e-03   3.8290961e-04
  6.3535109e-02   2.1457742e-04
 -2.6993400e-01   5.8850204e-04
 -6.8721485e-01   2.0823388e-03
  1.1426806e-02   9.9771866e-04
 -6.0316678e-03   1.2657739e-03
  8.8779731e-03   1.3731807e-03
 -4.1760072e-02   6.5690919e-04
  4.8802215e-01   1.4338989e-03
  1.0622079e-03   5.1689666e-04
  5.6219159e-04   1.7261013e-03
 -1.9885182e-01   1.0061389e-04
 -8.0038249e-01   2.5849274e-04
  1.7452049e-01   8.0834056e-05
 -2.8260190e-02   1.8067923e-04
  4.1666768e-02   5.8145528e-05
  5.0386898e-03   2.7465114e-05
  5.4337126e-01   7.9630692e-05
  2.3405623e-01   2.0761350e-05
 -2.8957369e-02   6.9638962e-05
  2.1880134e-03   6.0478743e-04
 -6.1187577e-01   8.2986976e-04
 -2.3954716e-01   5.0462497e-04
 -2.7866527e-01   2.1449325e-04
 -1.0360759e-02   2.0732320e-04
 -1.7134009e-01   2.7132101e-04
 -6.0501280e-03   3.7254352e-04
 -3.3588417e-02   3.2658913e-04
  2.0216232e-02   6.1858518e-05
  1.8949393e-02   2.8005612e-04
  1.5753333e-01   7.6741460e-05
 -2.7551496e-01   2.7263255e-04
 -1.4085636e-01   4.9208372e-04
  2.8237185e-02   3.1804145e-04
  1.1790135e-01   2.9137312e-04
 -6.0918421e-01   2.6481596e-04
 -6.9547974e-02   2.1878986e-04
  6.3375461e-01   2.8683982e-04
  5.7333779e-02   1.9138202e-04
 -1.4286992e-01   2.5193676e-04
 -1.9559240e-02   4.4737218e-04
  3.4859190e-03   3.1430696e-04
 -3.2821649e-01   1.8091772e-03
  1.0123829e-03   7.4778631e-04
 -1.3990991e-02   1.7258966e-04
  2.7748981e-01   2.8942843e-04
 -1.3802010e-01   5.9982209e-04
 -1.7050502e-01   3.2066932e-04
  5.0143734e-02   3.8242051e-03
  6.1151236e-01   6.0671653e-05
  6.2606751e-04   2.7278689e-04
  4.6086579e-04   7.0150394e-04
 -2.1563437e-04   5.8622530e-04
  3.9064297e-03   8.2336098e-04
  5.1204814e-03   5.5347866e-04
 -3.9898038e-01   2.2784410e-05
 -1.0325638e+00   1.2630106e-04
  1.5489572e+00   7.6570999e-05
  6.1962950e-01   1.2592092e-04
  1.5737146e+00   7.9221485e-05
 -9.4835752e-01   4.4859516e-05
 -1.1890744e+00   1.7217530e-05
 -1.5072703e-01   1.3294676e-05
 -4.4190577e-01   5.4325759e-05
 -1.3541948e+00   8.2345668e-04
  5.5577949e-02   6.1566898e-05
 -3.1725127e-02   1.8037329e-04
 -1.9221652e+00   1.6750574e-04
 -1.2481645e-01   1.8706659e-04
  1.7913207e+00   1.8271832e-04
 -2.6001844e-01   6.7226552e-05
 -5.0251371e-01   7.8740632e-05
  2.1680933e-01   1.5709837e-04
  1.2339227e+00   4.3519781e-04
  5.0073385e-01   1.1873391e-04
  1.8593235e-01   5.8409489e-05
  1.5400226e-01   1.2745384e-04
 -3.8450894e-01   9.6910437e-05
 -1.2987293e+00   3.4356683e-05
  8.1197388e-02   8.7382970e-05
  1.0064763e+00   1.7446591e-04
 -8.9620024e-01   2.8175586e-05
  1.1909520e-01   6.8303285e-05
  5.5592448e-01   7.4084637e-05
  7.9662585e-01   1.2807130e-04
 -3.0594376e-01   2.5496838e-04
 -1.2704137e-01   4.9349223e-04
  7.6386380e-01   3.9181113e-04
  2.1521872e-02   3.5588484e-04
  5.6429472e-02   6.5965258e-05
  2.7366865e-01   1.7843621e-04
  2.6748557e-02   4.0709224e-04
  1.9970635e-01   2.6208750e-04
  2.2099596e-03   5.9539877e-04
 -2.9824764e-01   5.3309277e-04
  3.1108448e-01   3.8013325e-04
 -2.3059326e-01   3.0163644e-04
  2.4108088e-02   2.5879871e-03
  5.6042904e-03   6.3123979e-04
  3.9495060e-01   7.9959107e-05
 -2.5808918e-01   3.1502877e-04
  4.6542492e-02   5.4702621e-05
 -4.4960895e-01   4.5045663e-04
 -9.6990651e-01   1.2045682e-04
 -3.4795380e-01   3.3373444e-04
 -1.4762118e-01   1.2633327e-04
 -3.8567695e-01   1.3144895e-04
  1.9259590e-01   5.1424350e-04
 -5.4812501e-03   5.0522102e-04
 -2.6439542e-01   3.4787378e-04
  6.0995790e-04   4.6284180e-04
  1.3020961e-01   9.9706370e-04
  1.4723607e-03   5.6759053e-04
 -2.8414237e-03   1.7250709e-04
  4.7244519e-04   5.6383217e-04
  5.9483740e-02   1.1749379e-03
 -3.5188768e-02   1.9642775e-04
 -9.4017282e-04   2.0825515e-04
  1.1250392e-01   4.7068883e-04
 -3.1364307e-01   1.2815191e-04
  1.8639756e-02   3.9000853e-04
  3.8666126e-01   2.1633178e-04
  3.6980160e-02   6.8360983e-05
  1.8118439e-02   4.5058058e-04
  9.5251225e-02   2.6290840e-04
 -5.1267510e-03   3.1056066e-04
  6.5596074e-01   3.0091373e-04
 -7.5108014e-02   2.0107462e-04
  9.5815174e-02   1.3256040e-04
 -3.4946237e-02   5.9132866e-04
  2.2037171e-02   2.4777374e-04
 -1.5377051e-03   4.2565854e-04
  3.6754287e-03   8.4663864e-04
 -2.3482318e-01   4.3477330e-04
  3.3069188e-03   9.7792316e-04
  7.4833132e-02   4.9581146e-04
 -8.3014173e-03   7.0006121e-05
  8.1116408e-02   2.9353216e-05
 -1.3666861e-03   6.1635388e-04
  5.5825422e-03   5.3515902e-04
 -1.5943233e-03   4.4779654e-04
 -1.5406351e-01   3.8784990e-05
 -9.4123289e-02   1.2613118e-03
  2.6641393e-04   1.7465085e-04
 -7.3945761e-02   3.6263984e-04
  5.5088820e-03   5.9975253e-04
  1.0770699e-01   3.5501336e-04
 -2.7170673e-01   7.0170773e-04
  4.0387749e-03   4.3369751e-04
  9.5984377e-02   1.9776728e-04
 -6.0210401e-01   5.3833105e-04
  1.2621849e-02   5.8624439e-04
  3.9066160e-03   7.7628705e-04
 -4.0077385e-03   4.9700041e-04
 -4.6353187e-02   2.4776574e-04
 -2.9777594e-02   5.7034224e-04
 -5.6053200e-03   2.5822496e-04
  3.2459481e-03   3.4218500e-04
 -7.4324860e-05   6.3141459e-04
 -1.8289164e-03   1.8051600e-04
  4.7291657e-03   3.2956136e-04
  5.0117448e-03   6.8530173e-04
  2.1138706e-03   7.7912491e-04
  1.9406952e-04   2.0331459e-04
 -3.4878587e-03   5.2989303e-04
  1.3355570e-02   2.9761720e-04
  9.2485943e-04   4.7310384e-04
 -3.6862394e-04   2.6036263e-04
 -8.2151359e-03   5.1862327e-04
 -1.2784199e-01   1.7229149e-04
  5.9364489e-03   1.9763230e-04
 -1.1424333e-02   8.0245000e-04
 -1.5960377e-01   4.0918647e-04
  1.5795551e-03   1.0881387e-03
 -1.8047331e-03   4.1403013e-04
  6.2546050e-03   6.9144910e-04
  7.3480189e-02   2.3742169e-03
  3.1387412e-03   4.7188657e-04
 -2.2077956e-03   6.0111453e-04
  3.7415936e-03   9.2090736e-04
  2.8272031e-03   2.0561386e-03
 -2.6640827e-03   1.4295985e-03
  2.3630983e-03   7.5717736e-04
 -6.1337807e-05   1.4520928e-03
 -6.8101473e-04   4.7901788e-04
 -8.3225488e-04   8.1032980e-04
 -2.2184632e-03   6.5840944e-04
  2.2229550e-02   4.6499594e-05
 -3.4123049e-03   5.9198204e-04
  2.9713819e-03   5.3513370e-04
  5.9260637e-02   5.4527729e-05
  1.7250866e-03   3.1525412e-04
  4.2139641e-03   4.5033274e-04
  8.2905078e-03   3.3687724e-04
 -3.1150622e-02   2.7421096e-04
  4.6070591e-03   8.7302062e-04
 -6.6122306e-03   4.3865538e-04
  1.4374080e-03   1.3666096e-03
 -1.8099569e-03   1.1939731e-03
 -4.0700221e-03   1.2334073e-03
 -8.3726353e-04   4.8799242e-04
  3.3750778e-04   4.6441369e-04
  6.9509819e-04   2.1458711e-04
  1.7132625e-03   2.9516488e-04
  4.6200526e-04   3.3826858e-04
  6.3680345e-03   1.9531201e-04
 -4.2521190e-03   9.4646052e-04
 -2.9746254e-04   3.3545654e-04
 -1.2642648e-03   7.1378361e-04
 -1.1142709e-03   3.2245298e-04
  5.3897261e-04   4.3647140e-04
 -4.1613802e-03   5.8164599e-04
 -5.7217345e-04   3.2050791e-04
  1.1608182e-03   8.1872928e-04
  6.1929878e-03   2.7334676e-04
 -3.3058316e-04   8.7144884e-04
  9.0487342e-04   3.9807751e-04
 -1.5537823e-03   1.0740636e-03
 -3.4968338e-03   6.3244946e-04
 -4.2394016e-04   1.2321461e-03
  1.4478702e-03   1.0071951e-03
 -2.0572022e-04   6.6374650e-04
  5.6160010e-02   6.0841125e-05
  4.5725724e-04   3.6320134e-04
  1.9932864e-03   6.3965080e-04
  5.2187010e-04   8.9743553e-04
  1.0700675e-03   7.1531639e-04
  8.8574522e-04   2.6859174e-04
  5.8501965e-04   7.0774648e-04
 -5.1355264e-03   7.5342372e-04
  5.6282216e-04   9.7562443e-04
 -3.5416907e-01   2.4696562e-04
 -2.5677327e-03   4.6181708e-04
  6.8252794e-03   4.3017211e-04
 -1.0896352e-01   2.1003879e-04
  2.3736121e-01   3.3938474e-04
  4.2043116e-02   1.9927947e-04
  2.2658567e-01   9.4608840e-05
  1.0750153e+00   1.3785518e-04
 -5.0504363e-01   1.2894896e-04
  3.9604027e-05   4.3368008e-04
 -6.0009700e-04   3.3616478e-04
  1.2135092e-02   4.1497921e-04
  2.9796606e-01   7.1616389e-04
  9.5418765e-04   3.4207679e-04
  4.2030035e-04   3.6625392e-04
  7.3880954e-03   3.6432748e-04
  3.9500254e-03   1.0286199e-03
 -9.5884055e-03   3.2739388e-04
  1.3016820e-05   1.6435330e-04
 -7.3766448e-03   1.6487429e-04
  6.9770925e-02   3.4980488e-04
 -3.9781462e-02   4.2648261e-04
 -2.5661078e-01   2.6317846e-04
  4.3042310e-04   4.0138373e-04
  7.2741043e-03   1.8778900e-04
  6.0318712e-02   3.8822539e-04
  8.8290386e-03   1.0394768e-04
 -5.0958493e-03   2.7735377e-04
  7.5884485e-03   5.1123992e-04
  6.3989475e-02   1.3494729e-04
 -6.7681377e-03   1.2514050e-03
  6.4755431e-03   6.7490095e-04
 -9.6442580e-04   3.3453410e-04
 -5.4405112e-02   4.3976351e-04
 -1.1478180e-01   1.5307586e-04
 -4.0974696e-03   1.2047394e-04
 -1.8399695e-03   6.3223741e-04
 -5.7958341e-03   5.5439712e-04
 -1.8165112e-03   6.1181828e-04
  6.8359950e-05   5.0651503e-04
  2.8050167e-03   4.1243935e-04
  1.9650918e-03   4.7847556e-04
 -6.2041730e-04   2.4353235e-04
  6.7957293e-04   1.1421023e-03
  6.0056394e-01   2.4587064e-04
 -7.5870859e-03   4.0292784e-04
  8.1931632e-03   4.3630481e-04
  1.0838944e-01   1.6092704e-04
  3.1003851e-04   1.6217434e-04
 -8.2283499e-05   2.7931586e-04
  2.9317962e-02   3.0871420e-04
 -1.1002650e-01   2.5461428e-04
  9.6699074e-02   9.2210923e-04
  2.7023149e-03   1.2816055e-03
 -1.4662679e-03   3.1009666e-04
  6.3559436e-04   7.5894868e-04
 -7.1364418e-03   5.6847028e-04
  3.9739572e-03   5.3097995e-04
 -2.9466122e-03   7.2236423e-04
 -1.5214436e-03   7.9336966e-04
 -1.6492713e-02   4.0832203e-04
  3.1837421e-03   5.6844199e-04
  1.0564515e-03   8.3780836e-04
 -1.5091107e-02   7.3455746e-04
 -1.3008934e-01   2.2220882e-04
 -2.0615859e-03   6.5682027e-05
  5.3337198e-02   7.4370779e-05
  5.0681420e-02   4.9511885e-04
 -5.4968661e-03   2.5574918e-04
 -1.7330545e-05   4.9332948e-04
  1.4442060e-03   3.3249243e-04
  2.9464582e-02   2.2616176e-04
  1.0950109e+00   8.9137699e-05
 -2.1575978e-03   2.9430099e-04
  2.8872879e-02   2.1110641e-04
 -8.9390455e-03   2.5400415e-04
  2.1341518e-03   9.6011616e-04
 -1.9583940e-03   1.7525547e-04
  5.1877957e-02   5.1789801e-04
 -4.0031811e-03   2.1300402e-04
 -1.8795534e-03   4.4637016e-04
 -4.4827437e-04   7.1512768e-04
 -2.0645265e-03   6.8776793e-04
  4.1715843e-03   2.8913270e-04
 -1.2415511e-03   9.9049089e-04
  1.6272461e-05   7.7309011e-04
 -1.1721155e-02   8.4633662e-05
  3.3764110e-03   1.0381169e-03
 -1.3400279e-01   3.3754107e-04
  9.7903912e-04   6.6712231e-04
  4.6772099e-04   2.5623880e-04
 -3.7544570e-03   2.9850047e-04
  2.3282343e-03   1.7034421e-04
  3.6920314e-03   8.8569935e-04
  1.8444493e-03   9.0455316e-05
  1.5499341e-01   2.5338735e-04
  1.9520886e-02   5.6280941e-04
 -6.3587294e-04   4.8523766e-04
 -5.6002993e-04   2.3586942e-04
 -2.2740546e-03   8.0221071e-04
 -7.1813739e-03   8.2659494e-04
  5.0112861e-03   7.2643632e-04
 -3.2878015e-03   5.7250535e-04
 -1.2607817e-01   8.7998866e-05
 -3.7057840e-03   4.0367543e-04
 -3.9528284e-05   6.2730722e-04
 -4.4238358e-03   6.9786131e-04
 -2.1625417e-03   8.1256358e-04
  5.8362503e-03   6.9045683e-04
 -1.0212002e-02   3.9785673e-04
  2.3389468e-03   2.4531744e-04
  1.5190637e-01   1.5106842e-04
 -2.4206031e-02   6.1202858e-04
 -2.5220474e-04   4.0444569e-04
 -4.2984544e-04   4.1263984e-04
  2.2149462e-02   3.8936321e-04
 -4.1478664e-02   4.1468252e-04
 -4.1015673e-02   1.2021607e-04
  5.2796397e-04   4.6751989e-04
 -9.8906336e-03   1.4074919e-03
 -1.5382748e-03   7.3683803e-04
  1.2677812e-03   4.6337553e-04
  7.4805650e-03   2.4148964e-04
 -1.2923949e-03   9.2439150e-04
  3.9993832e-03   8.4262749e-04
  1.3090562e-04   7.0684584e-04
  2.2876195e-03   1.1065759e-03
  1.9921430e-03   1.0942754e-03
 -5.0568691e-04   4.8503897e-04
  2.8554972e-03   5.8365858e-04
  1.4449346e-03   6.8734243e-04
  1.0284702e-03   5.6010677e-04
  1.7428066e-01   1.2015449e-04
 -5.4590359e-02   4.3510216e-05
 -7.9184540e-02   4.2342194e-04
 -7.7828489e-02   1.3219955e-04
  1.5411167e-01   3.5358121e-04
  5.6707211e-02   3.6610705e-05
 -7.9739922e-01   1.2052347e-04
 -5.9065890e-01   5.2125362e-04
 -1.5899198e-01   1.0342626e-03
 -4.3309764e-03   1.0081837e-03
  4.6436694e-02   5.6954625e-04
  1.1679938e-01   2.6196227e-04
  1.2174648e-01   4.2243925e-04
 -6.4121897e-04   4.1045513e-04
  1.7181949e-01   4.3001518e-04
  5.3799544e-03   3.6506256e-04
  5.8119381e-03   4.1294761e-04
  8.6313467e-03   2.6953776e-04
 -4.0000680e-01   3.6367972e-04
 -1.0084081e-02   3.7090958e-04
  2.1644820e-01   3.1198777e-04
  3.2091767e-03   4.8076228e-04
 -1.3097245e-04   5.5104948e-04
 -3.1620893e-04   7.0513366e-04
  4.2672355e-02   2.6819124e-04
  1.0244374e-02   2.8439279e-04
 -3.1982628e-01   1.5949494e-04
 -1.7543656e-01   2.5518413e-04
  1.2037643e-01   3.0293671e-04
  5.8341563e-01   2.3099684e-04
 -7.4623519e-04   6.1908329e-04
  8.6774029e-02   6.3611823e-04
 -2.1767921e-03   4.9168064e-04
 -2.7873542e-04   4.9074029e-04
 -3.6321902e-03   3.3703932e-04
  2.5005987e-02   7.1861013e-04
  1.2112517e-02   1.3146525e-03
 -3.6663276e-03   1.2891656e-03
 -3.7157829e-03   6.0456933e-04
 -8.1518403e-04   8.0554094e-04
  8.4970315e-04   2.9770038e-04
  3.5787490e-03   4.9362524e-04
 -9.5312893e-03   5.7606230e-04
  2.1253702e-04   2.3595827e-04
 -6.6230248e-04   9.7981852e-04
 -9.4844826e-04   1.2365102e-03
  7.2202622e-04   7.8264537e-04
 -3.6462929e-04   4.4385795e-04
 -1.2266287e-03   6.4601249e-04
 -5.7398351e-03   7.3942216e-04
 -9.3820621e-04   9.1863208e-04
 -1.6204802e-03   3.8613481e-04
 -2.6166716e-03   7.2694040e-04
  5.3577027e-03   1.1436767e-03
 -1.5362168e-03   5.2826898e-04
  1.0888545e-03   8.8590564e-04
  3.7300303e-03   8.3738269e-04
 -1.6068068e-03   1.3462410e-03
  1.0604422e-03   1.8052662e-03
 -8.5995393e-04   7.0416776e-04
 -3.9853379e-03   6.6324353e-04
  2.9340156e-03   6.2005973e-04
 -1.8146586e-03   7.6530880e-04
  1.8747690e-03   6.7209167e-04
  1.3667552e-03   4.1865339e-04
 -2.6401512e-03   7.4524299e-04
 -1.8849387e-03   1.0257285e-03
 -1.0393569e-03   6.1316590e-04
  1.7848748e-03   3.1653128e-04
 -3.3831806e-04   6.6394865e-04
  1.8616751e-03   8.0262270e-04
 -1.8496121e-03   1.5023672e-03
  5.6794055e-05   3.9578884e-04
  5.3081894e-06   1.0345344e-03
  4.7450690e-03   3.8868733e-04
 -1.7579672e-03   9.9945173e-04
 -2.4267420e-04   8.2667143e-04
  7.9355686e-04   4.4623620e-04
 -1.0243844e-03   8.4930816e-04
  2.3699194e-04   8.3045906e-04
 -4.4599264e-03   4.9873529e-04
  1.8686780e-03   1.1068468e-03
  8.6343288e-04   7.3391531e-04
  1.9713843e-02   3.3973320e-04
 -1.1632596e-03   6.4527628e-04
  8.2156959e-04   4.0562102e-04
  1.4899019e-03   9.6079224e-04
  4.8081070e-04   5.6436815e-04
 -1.3868809e+00   1.4430460e-05
  1.3366480e-01   3.3629782e-05
 -6.3372022e-01   2.6873793e-04
  5.9300089e-01   5.5910682e-04
  3.1800476e-01   1.4567151e-04
 -7.2929460e-01   1.8110151e-04
  5.8872003e-02   4.6929352e-05
 -3.1571114e-01   1.6675286e-04
  9.5761865e-03   2.6016790e-04
  2.4593771e+00   7.7734183e-04
  3.6346191e-01   1.4025406e-03
 -2.0212966e-03   4.2669720e-04
 -1.5042539e-03   1.3323592e-03
 -9.0611778e-05   6.9536548e-04
 -6.8099080e-03   3.0043055e-04
 -8.0221212e-03   7.3483837e-04
  1.3798263e-04   4.6403584e-04
  4.9927704e-02   1.6366859e-04
 -2.4587501e-04   3.5037784e-04
 -7.9229511e-02   3.9748047e-04
  3.6463284e-01   2.1625392e-04
  2.4996271e-02   1.1536466e-03
  1.9679281e-03   6.2116847e-04
 -1.0011887e-01   2.4552233e-04
 -1.9502209e-02   1.6203108e-04
  5.5574356e-03   8.5053267e-05
  1.8701926e-02   1.9332145e-04
 -1.1681721e-01   1.3115465e-04
  4.1209515e-02   4.5108175e-04
 -4.0642891e-02   3.7215694e-04
 -4.5903301e-04   1.0238196e-03
  7.7736290e-04   1.0793867e-03
  2.7622106e-03   5.1837158e-04
  8.3269859e-03   2.8599802e-04
 -1.1637336e-01   2.9522897e-04
  8.5758246e-02   7.1469077e-04
 -2.3426866e-04   2.1566167e-04
 -4.9806235e-04   1.2190830e-03
 -1.3470298e-03   5.4147083e-04
 -7.2439073e-04   7.6993450e-04
  2.3285018e-03   8.5814064e-04
 -1.0285029e-01   9.3903334e-04
 -3.0871277e-04   5.9661816e-04
  5.6633428e-03   7.6556794e-04
 -1.0998599e-03   4.5712493e-04
  4.8837266e-03   4.7935161e-04
  1.6589463e-03   8.4728416e-04
 -5.9780467e-04   4.6941874e-04
  1.0268619e-02   4.8459196e-04
 -1.8625329e-03   8.6058583e-04
 -1.0628382e-03   3.6664450e-04
 -4.4212588e-03   1.2776738e-03
 -1.4598620e-03   4.0939436e-04
  4.0686657e-03   8.0874522e-04
  9.0464915e-04   8.1765954e-04
  3.7491936e-03   9.0806052e-04
  2.1090822e-03   5.7477807e-04
 -1.1820404e-05   1.0008517e-03
  2.1665657e-04   1.2426494e-03
 -5.9993523e-03   8.3374971e-04
 -2.7613917e-03   6.8399799e-04
 -8.1903214e-05   1.0159606e-03
  3.2058416e-03   9.6046372e-04
  4.4146180e-04   4.4084035e-04
 -2.1087560e-03   2.4959978e-04
  2.4713139e-04   5.1431375e-04
 -3.6880714e-03   5.2017102e-04
 -1.4843307e-03   9.9617697e-04
  1.7827308e-03   9.6463540e-04
 -3.7194748e-04   2.8508817e-04
 -1.0612918e-03   8.1428676e-04
  1.2365717e-03   8.7845750e-04
 -3.2072377e-03   9.9876709e-04
 -8.8490581e-04   2.9984716e-04
 -1.2810444e-03   5.0964573e-04
  4.4854558e-03   7.7040109e-04
  1.0635091e-03   1.1688715e-03
  2.5646115e-04   4.3917305e-04
  4.6392852e-03   4.8803250e-04
  2.9978028e-04   1.1281576e-03
  1.0267294e-03   3.8458532e-04
  1.8103838e-03   9.0920815e-04
 -6.5531943e-04   9.0501929e-04
 -3.8938888e-04   5.0609693e-04
  5.3561246e-04   1.4136779e-03
  1.7981968e-03   8.6017087e-04
  3.9517763e-04   9.3367766e-04
  2.7699508e-03   8.5410196e-04
 -8.1218695e-03   8.9050992e-04
 -3.5135804e-03   5.2674499e-04
  4.1764072e-04   7.6829741e-04
 -3.1158347e-03   5.8614311e-04
  1.5506465e-02   1.9426554e-04
 -2.2917364e-03   4.4355189e-04
 -7.4591944e-03   1.1539811e-03
  3.5815947e-03   5.9434783e-04
  9.5621130e-04   4.4206955e-04
  3.8332044e-04   1.0373195e-03
  8.2377121e-02   4.8343657e-04
  3.0122578e-02   1.1853796e-05
  1.2002152e-04   6.9689774e-04
  7.7056972e-04   2.2014456e-04
  8.1463653e-04   4.1067434e-04
 -1.7979172e-03   5.2929908e-04
 -3.0749710e-03   4.4384631e-04
  2.6209161e-03   8.3350431e-04
 -4.5394800e-03   4.4474789e-04
  6.9184732e-03   7.5858855e-04
 -1.1619653e-03   6.3058117e-04
  1.1028546e-03   7.5571937e-04
  1.9513188e-03   5.4103468e-04
  2.0706304e-03   3.6249595e-04
  9.9585894e-05   6.6821987e-04
  1.6173368e-03   1.0467464e-03
 -8.6771167e-04   7.3332735e-04
 -3.4227740e-04   5.8996520e-04
  2.4752016e-03   1.0319133e-03
  1.1316479e-02   3.9244411e-04
 -5.8208141e-03   3.6228390e-04
  4.8797950e-04   8.4857276e-04
  2.3584775e-04   3.5237655e-04
 -4.9528442e-03   1.0416533e-03
 -1.6101921e-03   1.4644583e-04
  1.9409941e-05   1.0211471e-03
 -1.9669675e-03   6.5374171e-04
 -1.4831440e-03   1.5169525e-03
 -5.3082715e-04   7.5867109e-04
 -1.1460605e-03   1.4331444e-03
 -1.1920198e-04   5.2940118e-04
 -2.0310673e-04   7.9226983e-04
 -2.8904162e-03   1.8592206e-03
 -1.0610149e-03   4.1928090e-04
 -5.4935412e-04   2.4925309e-04
 -5.3516604e-05   7.6668506e-04
  1.0909161e-02   2.3177142e-04
  7.7462179e-04   5.6604965e-04
  4.3385830e-02   3.1658946e-04
 -1.4516246e-01   3.3814556e-04
 -1.8917152e-01   4.0060596e-04
  1.0349993e-01   1.4009743e-04
 -2.7025523e-02   3.7386894e-04
 -2.7038464e-03   9.8995189e-04
  4.2379601e-03   4.5663044e-05
  5.1226139e-05   4.8925198e-04
  1.3817861e-02   4.2036083e-04
 -5.4633236e-03   4.3596420e-04
  4.1941470e-03   4.1544091e-04
  1.3754640e-03   4.2701975e-04
  1.1195557e-02   4.8830896e-04
  5.3059781e-04   3.0183568e-04
 -1.0288705e-04   8.6127041e-04
  1.8833192e-01   1.6488225e-04
 -8.4327636e-03   4.3514420e-04
  1.7524527e-03   2.5474490e-04
 -2.0197222e-03   5.5469596e-04
 -5.5459165e-04   5.4748805e-04
  7.4354187e-03   5.8416324e-04
 -1.7516512e-03   2.8935150e-04
 -1.0053021e-03   2.2650950e-04
 -3.0532598e-02   3.3204196e-04
  2.0693005e-03   8.9463708e-04
  1.5057957e-02   6.4677341e-05
 -2.4038566e-04   1.4242304e-04
  1.2693518e-02   1.1429329e-03
 -3.7762600e-03   3.7076941e-04
 -1.9017333e-04   5.7614787e-04
 -7.2411373e-03   6.8372593e-04
 -7.1019086e-04   5.7131867e-04
  1.0509090e-02   1.2063854e-03
 -9.6405959e-03   1.5227027e-03
  1.0403326e-03   1.0643229e-03
  1.8933025e-04   5.0065987e-04
  1.6850238e-03   7.1885943e-04
 -3.1021298e-03   4.7778804e-04
  7.5036130e-04   3.1203657e-04
  8.8412850e-04   4.7129905e-04
 -5.6553227e-01   1.6609200e-04
 -1.9190052e-03   3.9242906e-04
  2.4581274e-01   3.0031509e-04
  3.1436896e-01   3.6152630e-04
 -6.8453664e-01   1.3797879e-04
  4.6088570e-01   2.1963388e-04
  2.3369232e-01   7.1920789e-05
  9.9157077e-01   4.3257493e-05
  1.9071922e-01   3.1421054e-04
 -3.3967514e-03   5.9352058e-04
  9.6666723e-01   1.3775616e-04
  4.4006347e-03   6.0306868e-04
  1.2154682e+00   9.1814632e-05
 -1.0637691e-02   5.3943036e-04
  1.5387419e-02   3.0868305e-04
  3.2445984e-03   1.4743659e-04
  1.0392638e-02   2.3780981e-04
  1.3710842e-01   8.5382191e-05
  7.7818701e-04   3.2532602e-04
  7.0356363e-01   1.9059237e-04
  1.5760513e-01   4.1014451e-04
  2.4078362e-02   2.2919549e-04
 -9.7868685e-04   5.5597979e-04
 -6.2369078e-01   3.7762042e-04
  8.6848390e-01   3.8297733e-04
  1.3192059e-01   7.7393930e-04
  6.5641683e-01   1.3075833e-05
 -1.5180783e-01   1.1374861e-04
 -1.5045953e-01   9.6005169e-05
  7.1429960e-02   4.9562647e-04
  2.5327155e-01   2.0435278e-04
  2.1149775e-01   6.8911503e-04
  1.4732220e-03   1.0374306e-03
  2.3231450e-03   6.5005361e-04
  7.0303184e-01   5.7523011e-05
  1.0970664e-02   6.0478831e-04
  7.3130820e-03   2.0808874e-04
 -3.5856036e-03   8.0374192e-04
  2.0745310e-01   2.2380560e-04
  4.0830253e-03   8.4523641e-04
 -4.5535001e-03   9.1491331e-04
 -4.9400907e-03   5.4426515e-04
 -8.7456533e-04   6.8563351e-04
 -2.1211628e-03   1.0155519e-03
 -7.4954174e-04   3.9943185e-04
 -1.7181777e-03   5.5105181e-04
  7.2978018e-03   1.4771580e-03
  1.5696667e-03   2.9148173e-04
 -1.1907375e+00   8.5086271e-05
 -1.5745087e-02   2.3500105e-04
  1.3520941e-04   1.0866391e-03
 -7.9699857e-03   1.1968660e-03
  1.2097333e-02   2.4885134e-04
 -2.2824274e-03   1.2386471e-03
  5.1213345e-03   3.3678461e-04
  8.5221371e-05   3.9845938e-04
 -7.7664678e-04   3.6997354e-04
  1.7686684e-01   6.3269783e-04
 -3.0597521e-03   3.2651893e-04
 -1.7642103e+00   1.0342665e-04
 -3.7743072e-03   8.9961482e-04
  1.0945873e-03   9.7902690e-04
 -3.1368712e-01   3.5926214e-04
 -5.9007207e-04   2.8448389e-04
 -4.5783282e-03   3.3984988e-04
  2.5655898e-05   4.3433599e-04
  3.8295586e-03   3.3439085e-04
  7.4706096e-03   8.1279909e-04
 -1.4982218e-03   6.9288450e-04
 -9.7303226e-04   6.3772604e-04
 -1.3310068e-03   6.3873117e-04
  1.0940355e-04   1.7227173e-04
  1.2208640e-03   1.4745508e-03
 -4.9470332e-03   5.7651714e-04
 -9.5392883e-05   9.9856209e-04
  6.6312315e-04   5.1069580e-04
 -9.5759053e-04   1.8185252e-04
 -4.5401677e-03   8.4307371e-04
  3.9952609e-04   3.9202563e-04
 -4.2116032e-03   9.2132867e-04
 -1.8648484e-03   9.7854319e-04
  6.0016999e-04   1.1812974e-03
 -4.6086684e-04   7.7744841e-04
 -7.3413062e-04   5.1202311e-04
 -3.2505975e-03   1.1341550e-03
  1.3009112e-03   6.3464604e-04
 -1.4570731e-03   2.1947778e-04
 -2.2080657e-03   7.9185859e-04
 -2.7108931e-03   1.1263649e-03
 -9.9523156e-04   4.9430266e-04
 -3.2573903e-03   1.0461002e-03
 -4.5895655e-04   3.1608823e-04
 -2.2715370e-03   8.3345635e-04
  3.4726374e-03   9.7482651e-04
  5.1763803e-03   4.0198895e-04
 -1.6602692e-03   9.1603381e-04
  2.2033337e-03   2.7086629e-04
 -1.8809696e-03   7.2243565e-04
  2.7772103e-04   4.9165508e-04
  7.1928836e-04   2.1267876e-04
 -2.5694567e-04   5.6443718e-04