  1.3077022e-03   3.2750974e-04
 -4.7591253e-05   2.8315998e-04
 -4.0653837e-04   2.1702648e-04
  5.3808949e-04   4.3427406e-04
  3.9101398e-04   1.4774349e-04
  1.4196211e+00   5.0451639e-05
 -6.1858929e-04   9.1095513e-05
  1.0843131e-03   2.3153430e-04
 -7.9090812e-04   2.2406242e-04
 -8.4784144e-04   1.6160679e-04
 -1.4950901e-03   3.2884750e-04
 -1.6864240e-05   1.0026236e-04
 -8.6689036e-04   3.8876414e-04
 -4.0380249e-04   2.1183297e-04
 -3.9940485e-04   9.2959439e-05
 -3.5267998e-04   2.5722187e-04
 -2.9548287e-04   3.9258052e-04
  4.3141522e-04   2.8633545e-04
 -6.6781550e-04   2.8693548e-04
 -6.0304563e-04   2.4124849e-04
  8.0660830e-06   2.2907487e-04
  2.6953535e-04   7.9423269e-05
 -6.5562694e-04   2.6048542e-04
  3.8204645e-04   1.8371460e-04
  1.5439292e-03   1.7865714e-04
  5.6733063e-04   3.0813398e-04
 -6.7107368e-04   2.2401495e-04
  1.1621340e-03   1.4799203e-04
 -9.6151407e-04   8.6422580e-05
  1.9291241e-04   3.0394489e-04
  4.2118912e-04   2.1303291e-04
 -1.3089454e-04   2.7614145e-04
 -6.7971804e-04   1.9314970e-04
 -3.8408689e-04   1.8649925e-04
  2.4732777e-03   1.5351911e-04
  3.7308771e-04   1.2403684e-04
  1.6505615e-03   1.8380283e-04
 -9.9830958e-04   3.2600269e-04
 -7.5530625e-05   2.9187856e-04
 -1.5526899e-04   1.1655062e-04
  5.1581672e-05   2.2099529e-04
 -6.9156074e-04   7.2895593e-05
 -4.3493617e-04   3.4923802e-04
 -1.1836077e-03   1.8223363e-04
 -3.4572015e-04   3.1775644e-04
  1.7296768e-03   1.6304660e-04
 -6.4502227e-01   1.1277883e-04
  1.5980386e-03   1.6266594e-04
  9.3176550e-01   1.0428355e-03
  1.1333894e-01   1.9066832e-04
 -3.5604069e-04   3.6587473e-04
  1.5103837e-04   2.4983127e-04
  6.9711683e-04   1.9346578e-04
 -4.9468142e-04   1.5138970e-04
 -2.1867938e-05   3.0991022e-04
 -6.3733844e-04   2.0803593e-04
 -2.7413367e-05   3.4989681e-04
 -1.6317915e-03   4.9373216e-04
 -1.3775589e-04   1.2297124e-04
  2.0212891e-04   1.6726181e-04
 -8.7172884e-05   1.7462924e-04
 -5.4919219e-04   4.9890071e-04
  1.6622157e-04   2.5607730e-04
 -3.5080707e-04   2.9750407e-04
  2.9978814e-04   1.5956491e-04
 -2.3951109e-04   3.5875980e-04
 -4.1046532e-04   3.3506256e-04
 -3.2525737e-04   1.7873656e-04
 -3.4260946e-05   6.5034765e-05
  3.1060184e-04   3.0881402e-04
 -1.4846659e-03   2.6132929e-04
  1.0385445e-03   2.6387899e-04
  9.2791935e-04   1.4032611e-04
  7.1344496e-04   2.8429512e-04
 -1.0971999e-03   1.7318962e-04
  4.1132403e-04   1.3966006e-04
  1.4993108e-03   1.4484848e-04
 -5.6309614e-04   2.9973980e-04
  2.2811335e-04   2.8257526e-04
  1.5166701e-03   8.8566150e-05
 -6.0693326e-04   3.3650053e-04
 -7.8730445e-05   3.0621112e-04
  7.4765319e-04   2.2508654e-04
  7.3060166e-04   1.9864614e-04
  1.9651186e-03   2.8669860e-04
 -4.5863539e-04   3.0609890e-04
 -1.8047978e-04   1.9739263e-04
  1.9917884e-04   1.6672853e-04
 -3.8575655e-04   1.5866489e-04
  6.2345562e-04   1.7091338e-04
 -2.5078669e-04   2.5689366e-04
  6.0989888e-04   3.0472910e-04
 -6.1741850e-04   2.5460342e-04
 -4.4169725e-04   1.7315189e-04
 -3.3038147e-04   3.7758437e-04
 -4.9457703e-05   4.5195583e-04
 -1.2883989e-03   3.4801677e-04
  3.7734074e-04   1.5575874e-04
 -8.5019192e-04   1.9895125e-04
 -1.0909523e-04   1.5451330e-04
  4.1105313e-04   1.6587824e-04
  5.3397851e-04   2.5119723e-04
 -2.8017050e-04   1.8867820e-04
 -4.6234461e-04   2.0477471e-04
 -5.2200729e-04   1.4278936e-04
  4.6636636e-04   3.1241527e-04
  1.6035466e-04   2.6835169e-04
 -3.5899019e-04   3.9596236e-04
 -1.1983386e-04   2.4901333e-04
 -3.9718923e-04   1.9760869e-04
 -2.1234149e-01   8.6096159e-05
  2.2273624e-04   2.2539444e-04
 -1.0770993e-05   3.0490273e-04
 -1.0344465e-03   2.1826594e-04
  1.0735480e-03   3.8633237e-04
 -2.9779901e-04   1.9431612e-04
 -2.1751452e-04   2.9857215e-04
  7.1199797e-04   1.8590083e-04
 -9.5994642e-04   1.7039932e-04
 -1.0925059e-03   1.3679980e-04
 -2.2346871e-04   3.1973177e-04
  4.6755921e-04   1.9900975e-04
 -5.3669760e-06   2.4280393e-04
  9.8466827e-04   3.6168599e-04
 -2.1797202e-04   2.0480683e-04
 -7.3174830e-05   2.5824195e-04
 -2.2252947e-05   1.9314906e-04
  1.6160413e-04   1.1866457e-04
  1.0152271e-04   1.9397045e-04
 -1.1808966e-04   2.0703455e-04
 -9.7118062e-04   1.8940380e-04
  6.0828368e-04   2.2485241e-04
  8.1759389e-04   1.9820436e-04
  7.3670170e-05   2.4395493e-04
  1.3932123e-04   2.4877166e-04
  2.3825723e-04   2.4415148e-04
  1.2571977e-04   1.1513061e-04
 -3.4110461e-04   2.9576052e-04
 -1.5765098e-04   2.9423842e-04
  4.0976729e-04   1.2781419e-04
 -1.6690447e-04   3.8038052e-05
 -7.6574605e-04   3.7357779e-04
 -5.2927702e-04   2.9314295e-04
  1.6558781e-04   4.3235125e-04
 -1.0388982e-04   1.6846621e-04
 -2.9079115e-04   1.1846745e-04
  1.9910028e-03   1.8988021e-04
  3.4322581e-04   2.8913305e-04
 -2.2629242e-04   2.6797201e-04
 -1.9850228e-03   1.3542442e-04
 -1.8256332e-03   1.8200265e-04
 -3.0871981e-04   3.1274953e-04
 -2.5473500e-04   1.0758937e-04
 -1.0943798e-04   2.0191167e-04
  3.5881571e-04   2.3815459e-04
 -1.4517383e-03   1.7414168e-04
  7.4803422e-05   1.6748320e-04
 -5.6300858e-05   1.1099575e-04
  2.8018334e-03   5.9735983e-05
  2.3158130e-04   2.0425621e-04
 -4.4399974e-04   2.9453239e-04
 -5.3900847e-04   2.7209517e-04
 -6.8846467e-04   1.9187038e-04
  1.7229006e-04   1.9012787e-04
 -4.1062394e-04   1.5470988e-04
  7.2668568e-04   1.9231054e-04
  6.2704022e-04   1.5777958e-04
  4.8666401e-04   1.9762768e-04
  2.8735853e-04   2.0448038e-04
  1.6523463e-04   1.3157348e-04
  1.5302465e-04   5.3466141e-04
  7.0582220e-04   2.6435425e-04
 -4.3345059e-04   2.5060485e-04
  1.2387480e-03   2.6567778e-04
  1.0854114e-03   1.9646680e-04
  7.6073798e-04   3.1507268e-04
  7.4004167e-04   2.7263572e-04
 -4.7662351e-04   1.8963528e-04
  6.9119211e-04   3.9796872e-04
 -5.1018136e-04   1.4349641e-04
 -2.2607746e-04   3.7570880e-04
 -3.1982396e-05   2.4582067e-04
 -8.7467406e-04   1.8228883e-04
 -1.3155902e-04   2.2828170e-04
 -1.0344860e-03   1.1414803e-04
  9.3302573e-04   1.5539194e-04
  9.5492986e-04   1.9712340e-04
 -3.8697047e-04   2.4828420e-04
 -1.8705909e-04   2.3391926e-04
  3.8893070e-04   2.3909105e-04
 -8.2881306e-05   3.1409887e-04
 -4.1806590e-05   2.2788467e-04
 -3.7545524e-05   3.4832701e-04
  8.7224407e-04   2.5785691e-04
  1.3723901e-04   2.4461973e-04
 -2.3450129e-04   2.1870913e-04
 -3.4815006e-05   2.3735124e-04
  9.4125263e-04   2.0778069e-04
  9.2631619e-04   9.0886337e-05
  1.0900353e-03   1.3239615e-04
 -3.0954572e-04   3.0306060e-04
 -4.2286882e-04   1.6152984e-04
 -8.0843660e-05   2.8310687e-04
 -1.3692555e-03   8.6880391e-05
 -3.5734742e-04   1.0023580e-04
  2.8396418e-04   1.2483579e-04
 -1.2016838e-04   1.8784266e-04
 -6.6899421e-04   2.2507300e-04
 -9.5379556e-04   1.7709672e-04
  1.4564602e-03   2.4886051e-04
 -3.9319889e-04   1.1714527e-04
  5.4254476e-04   1.7676946e-04
 -6.7839259e-04   1.4853253e-04
  6.1540282e-04   2.4019022e-04
 -2.8400986e-02   2.5337629e-04
 -5.7671359e-04   1.9746607e-04
  3.7088525e-04   3.3234639e-04
 -5.9772650e-04   1.9261159e-04
  5.3687261e-05   3.6914137e-04
  3.4926852e-04   1.2316022e-04
 -1.8927422e-01   7.5734031e-05
 -4.0842965e-01   2.5497733e-05
 -2.8983951e-01   1.4034381e-05
  7.7895753e-02   2.0762689e-05
  1.5521835e-01   1.5373591e-05
 -6.2683164e-03   1.0749865e-05
  2.0841949e-01   2.0969463e-05
  6.2486321e-02   2.0474521e-05
 -2.5421467e-01   2.0247546e-05
 -1.2099673e+00   5.7436020e-05
  4.0768903e-01   3.2960036e-04
 -1.5434615e-02   2.8993629e-05
  1.3996127e-01   6.2128347e-05
 -3.8421959e-01   1.5402808e-05
  2.3204652e-03   6.8041976e-05
 -6.4698905e-01   2.2545016e-04
 -4.1487899e-01   3.4048127e-05
 -1.3402940e-01   2.4743672e-04
 -9.8508187e-02   5.2303196e-05
 -2.0475262e-01   8.7907320e-05
  7.4481526e-05   7.7244040e-05
 -1.4208604e-01   7.6856035e-05
 -3.4473173e-02   5.7503607e-05
 -3.1008911e-01   5.6056131e-05
  4.6017984e-04   1.4055964e-04
  2.3125155e-01   3.8246875e-05
 -1.6853397e-01   3.7427937e-05
 -1.2556077e-02   2.7417193e-06
 -6.8332970e-02   6.9276422e-05
  1.8553022e-02   1.1889622e-05
 -5.0651836e-01   1.8752458e-04
  1.3617927e-03   2.2838234e-04
  1.5983162e-02   1.0489394e-05
 -2.3480183e-02   8.4039857e-05
  1.2806350e-01   1.1396435e-04
  7.7893486e-04   1.0174209e-04
 -1.5146531e-03   4.0696228e-05
 -6.3592039e-02   4.9299695e-05
 -2.0530580e-01   5.8870966e-04
  1.6187818e-01   1.2473400e-04
  2.1411869e-01   2.0034476e-04
  1.3767014e-02   1.3366189e-04
 -1.3604543e-01   3.6222211e-04
  4.4431929e-02   9.0312802e-05
 -7.9100949e-01   9.9121527e-05
  8.4927492e-02   4.0082414e-05
  4.2160210e-01   9.5883624e-06
  5.1885730e-01   2.4212495e-05
 -1.7205033e-01   2.0855272e-05
  5.5158120e-01   7.4024770e-06
  2.5212789e-02   3.1264251e-05
 -1.7389044e-01   3.6027624e-05
  1.1294439e-01   4.9113030e-05
  2.3420545e-01   2.1719379e-05
 -4.4485039e-01   3.4762689e-04
 -4.5175749e-01   9.1312628e-05
  2.9602864e-01   1.0042097e-04
 -3.0161422e-01   3.7380054e-05
  2.8047519e-02   3.2100588e-04
  1.0317421e+00   4.7421683e-05
 -2.6239985e-01   3.8067523e-05
  9.1672748e-02   8.6926724e-05
 -6.8215716e-01   2.0875748e-05
 -6.3085511e-02   8.7433647e-05
  1.9146127e-01   1.8636882e-05
 -4.4707105e-01   8.4981089e-05
  2.9033718e-01   4.3560322e-05
  4.1452196e-01   5.3952052e-05
  3.2763118e-01   2.8259450e-04
 -6.4300895e-01   4.7892634e-05
  9.3481801e-02   2.9582359e-05
  3.5441241e-01   3.3037770e-05
  7.3209065e-01   1.2248766e-04
  3.2494736e-01   4.2766929e-05
  7.9274076e-01   6.4668393e-06
  6.3300971e-04   3.2442203e-04
 -3.6920518e-01   6.3485459e-05
 -1.5476845e-01   3.6242374e-05
  6.9454879e-01   7.2062881e-05
 -3.1848603e-01   2.9781740e-04
  1.5888211e-01   1.8282642e-04
 -5.4785222e-01   2.3968332e-04
  3.1169891e-01   7.8948122e-04
 -1.3740695e-01   6.9975868e-05
 -1.6701046e-01   2.9102329e-04
  3.1892609e-02   9.7031050e-05
  1.8696359e-01   2.7242673e-04
 -5.3211156e-02   2.0853683e-04
 -6.1720266e-04   1.8694605e-04
  7.3386135e-04   1.2050150e-04
 -1.4181423e-03   1.4986693e-04
 -5.0470509e-05   1.8889742e-04
 -3.0200938e-03   2.4925338e-04
 -3.5407584e-02   1.2114927e-05
 -2.4500536e-03   1.6534369e-04
  2.9335491e-04   1.6314107e-04
  5.1344797e-04   1.3980980e-04
  6.6517887e-04   1.8816085e-04
 -2.0311681e-04   2.6836788e-04
 -9.4535277e-04   9.6772499e-05
 -2.2570830e-05   2.1403212e-04
 -2.4104066e-04   1.1371457e-04
 -2.1767701e-05   2.0703326e-04
  1.0781358e-05   1.0674598e-04
  2.6058182e-04   3.7296858e-04
 -4.9906998e-04   2.5113262e-04
 -1.0560123e-03   4.6226571e-05
  3.0053995e-04   8.3401530e-05
  3.7364868e-04   2.3010057e-04
 -3.6256792e-04   2.0413652e-04
 -2.3770200e-04   1.7814540e-04
  1.7740772e-04   3.5103262e-04
 -1.6824676e-03   1.0038116e-04
 -1.0917238e-03   2.3343881e-04
  4.1282256e-03   1.5772333e-04
 -2.7547614e-04   1.4468961e-04
 -1.9933288e-03   2.9699673e-04
 -4.3184636e-04   2.2034533e-04
 -2.6283644e-03   1.9238750e-04
 -5.2254094e-04   8.9042915e-05
 -1.0878280e-04   2.5570279e-04
 -3.2164567e-04   3.8356049e-04
  2.4371951e-04   2.4547303e-04
 -1.3248050e-03   3.2836234e-04
  1.4381983e-03   1.0937754e-04
  2.2605239e-04   1.5734012e-04
  4.9300265e-04   1.7175918e-04
 -9.5423136e-05   1.0733590e-04
  1.8403775e-04   1.2112535e-04
 -3.0658059e-03   1.3615884e-04
 -2.7136056e-04   2.9685884e-04
  7.0253962e-01   5.1494280e-04
 -1.9655533e-03   2.5650999e-04
 -3.3592278e-04   1.1455720e-04
  1.1810329e-01   3.5694210e-04
  8.2505983e-04   2.5220745e-04
  1.9152375e-04   1.6418932e-04
  7.9566857e-04   2.3965663e-04
  1.1257277e-03   2.8724701e-04
 -6.0240959e-04   2.9744921e-04
 -4.0872861e-04   1.6364637e-04
 -2.0970748e-04   1.8098573e-04
  8.4882911e-04   1.9230656e-04
  4.3234131e-03   2.8574443e-04
 -1.4588449e-03   2.6518371e-04
  2.1808215e-03   1.7023011e-04
 -1.3722330e-03   9.9605881e-05
  1.2484379e-04   9.0078400e-05
 -4.7206981e-04   1.3117341e-04
  5.1935995e-04   1.4158241e-04
 -1.0161623e-03   2.3186840e-04
  1.5134220e-04   3.4936346e-04
 -4.5727659e-04   1.8831536e-04
 -1.7396870e-04   1.7749873e-04
  4.0637533e-06   2.0690479e-04
 -7.3321350e-04   7.0642105e-05
 -1.4146535e-05   3.3666554e-04
  3.8861686e-05   2.1469669e-04
 -8.3902804e-04   5.9649756e-05
 -3.3960940e-04   2.5280635e-04
 -6.1931327e-04   2.3276360e-04
  1.4467174e-04   1.4621968e-04
  2.6717652e-03   2.0724989e-04
  1.8833505e-03   2.3317641e-04
  4.8809315e-04   1.9812542e-04
 -4.2989544e-04   3.6750242e-04
  7.5303519e-04   1.9117589e-04
  7.6648733e-04   2.1133476e-04
 -4.5668922e-04   2.9134771e-04
  1.0867006e-04   1.6663177e-04
 -2.2236287e-04   2.1442240e-04
 -9.2524895e-04   2.9459433e-04
 -1.0307865e-04   2.6222604e-04
 -2.2881795e-04   4.0904843e-04
 -9.7400727e-05   3.1583087e-04
  1.3252869e-04   2.9686949e-04
 -3.1120232e-01   3.2420538e-04
  3.1624180e-01   4.7848785e-05
  9.6184635e-01   5.3619035e-05
  6.6650957e-03   2.8377629e-04
 -4.7458494e-03   1.4039490e-04
  1.2105083e-02   2.4083758e-05
 -9.6374743e-02   7.7110577e-05
 -6.5130240e-04   1.7274899e-04
 -2.4658589e-02   1.6672745e-04
 -1.5083092e-04   2.5478384e-04
  1.3810433e-03   2.4717581e-04
  6.3739367e-02   1.9657686e-04
  1.5779265e-03   5.6677416e-04
 -1.0280777e-04   1.3331221e-04
  2.7532715e-03   2.1008721e-04
 -9.0841705e-04   2.9928033e-04
 -8.2505062e-02   2.0434150e-04
 -3.1829352e-04   4.0878865e-04
 -4.2326891e-01   1.1852727e-04
 -1.7959884e-03   2.0126761e-04
 -6.8752438e-02   3.1281964e-04
  3.4092518e-04   1.3826865e-04
  1.2577346e-01   8.8988832e-05
  3.9660409e-03   1.6092269e-04
 -2.2206717e-04   2.3484424e-04
  1.3188260e-02   7.6870470e-05
 -2.9198736e-01   4.5132034e-05
 -4.7528878e-02   1.6296758e-04
  2.0781690e-01   2.9770620e-04
  7.9184937e-01   2.9186574e-05
  1.9360919e-04   1.2433250e-04
  5.3375121e-03   8.4858865e-04
  6.1759725e-02   1.6857231e-04
  2.1200114e-01   3.6781264e-04
  1.1821930e-05   1.1602161e-04
  8.9038297e-04   3.8407359e-04
  2.0862998e-01   4.6279447e-04
  9.7231538e-04   1.7502373e-04
 -8.0184303e-03   3.8235477e-04
 -2.3894208e-04   2.7145378e-04
  3.0926598e-04   2.5364661e-04
  1.0283486e-03   7.4611969e-05
 -9.2880870e-04   1.9303220e-04
  1.1251168e-04   2.4035141e-04
 -1.1243914e-03   2.7166758e-04
 -2.2003289e-05   2.2674547e-04
  2.2710852e-04   1.8734093e-04
  9.3866885e-04   6.8943773e-05
 -3.3365749e-04   1.8017135e-04
 -6.3051328e-02   1.2256639e-04
 -4.3085660e-04   1.9038998e-04
  5.7798979e-04   2.9670502e-04
 -2.8736985e-04   1.7618883e-04
 -3.3482892e-04   1.4089313e-04
 -5.1064463e-04   3.8878259e-04
 -8.9048734e-04   3.0269451e-04
  3.2580635e-04   2.2992248e-05
  1.4899962e-03   1.4755658e-04
  1.0016519e-03   2.7151691e-04
 -1.3007005e-03   9.1143324e-05
 -2.3408027e-04   3.6665492e-04
  6.2740885e-04   1.7834932e-04
 -1.4152381e-04   2.0906091e-04
  5.3407450e-04   3.7763020e-04
 -5.5438024e-04   8.0880396e-05
  1.6173327e-04   1.7852879e-04
 -2.1396144e-04   2.0113320e-04
 -5.1991642e-04   3.8394573e-04
 -2.2756295e-04   1.9119775e-04
  5.0980796e-04   1.0180485e-04
  1.6920265e-03   1.8341655e-04
 -6.3477602e-04   2.0996758e-04
 -1.9814142e-06   9.8703356e-05
  4.2818871e-04   2.0812203e-04
  3.6018001e-04   2.1579576e-04
 -1.7190260e-03   3.6654292e-04
 -2.1863575e-04   1.6528300e-04
  1.3698421e-03   2.5074583e-04
  1.0478171e-03   1.4197284e-04
 -8.6517556e-04   2.0568520e-04
  1.2183275e-04   2.0379723e-04
  1.0990802e-04   3.2317420e-04
 -8.0508256e-04   2.0159024e-04
  1.4564641e-03   1.8228347e-04
 -9.2710333e-04   2.0722453e-04
  3.3481707e-04   2.5509429e-04
 -7.7523628e-06   8.9158624e-05
  1.1813438e-03   1.1102899e-04
 -6.2370789e-04   7.9953606e-05
 -1.5321107e+00   1.0898399e-04
 -1.7856435e-01   1.8648161e-05
 -7.3400453e-02   2.1551788e-04
 -1.4144481e-03   2.0174736e-04
  1.1997974e+00   1.2934313e-05
 -2.3196574e-02   2.8050406e-04
  7.7970259e-02   2.8833668e-04
 -1.8706720e-04   2.3296908e-04
 -6.3534873e-04   1.5075167e-04
  5.2538718e-04   2.3404545e-04
 -1.9446948e-04   1.7915929e-04
  2.5600382e-05   3.1853234e-04
 -9.7919032e-02   3.8814454e-04
 -2.2596822e-04   2.0570160e-04
 -2.0518877e-02   1.9502754e-03
 -4.6576366e-01   6.5190363e-04
 -1.5732468e-04   1.3212491e-04
 -1.2387984e-01   1.2794850e-04
  2.5269185e-04   3.4919192e-04
 -3.7983421e-04   1.1942808e-04
 -3.6007186e-04   2.0272241e-04
  3.4734688e-04   2.4935373e-04
 -1.7192552e-02   9.5447683e-04
 -6.4505800e-04   6.3828906e-05
 -1.8253326e-01   1.3315164e-04
  2.6696967e-02   4.2903799e-04
  6.0288643e-04   7.2065025e-04
 -2.4968863e-02   3.9784383e-05
 -3.8401334e-04   1.4917718e-04
 -5.4313021e-04   9.4004725e-05
 -4.5605790e-04   3.1487941e-04
 -2.1563340e-03   2.0245615e-04
 -2.0795826e-02   1.5529722e-04
  5.5697085e-03   1.7602189e-04
 -1.6394516e+00   4.6749858e-05
 -3.0505151e-04   1.8406077e-04
 -9.9927311e-05   2.2256085e-04
 -2.2494675e-04   1.9031034e-04
 -6.3280750e-04   2.1328012e-04
 -1.6293419e-03   9.4689502e-05
  4.1596382e-04   1.8706970e-04
 -4.7272049e-05   3.9180295e-04
  1.9910278e-04   1.1214140e-04
  9.3213260e-01   1.3790035e-04
  2.1729314e-01   4.5715031e-05
 -6.5170482e-02   3.0365485e-05
  3.9569074e-01   1.1958778e-04
  6.0763496e-01   7.9680285e-06
 -3.1621167e-01   4.3142104e-06
  6.1113940e-04   1.4387038e-04
 -5.1409656e-01   2.2962822e-05
 -1.4495337e+00   1.7498359e-04
  1.1284100e-01   1.3148325e-04
  4.7293746e-05   2.2539760e-04
 -3.5094130e-01   3.5294768e-04
 -2.6404196e-03   1.9991113e-04
  7.3673236e-01   2.8430088e-04
  4.5173507e-05   3.4874541e-04
  7.6316851e-01   6.0380815e-04
  8.8422757e-01   8.9441877e-05
 -3.3595406e-03   1.7217129e-04
  1.0043724e-01   2.2897596e-04
  1.7163109e-02   4.4955660e-04
  1.1689954e-01   1.9772488e-04
  5.7622773e-04   5.8795533e-05
  1.0735441e+00   1.5141765e-04
  3.7805203e-01   1.1011898e-04
 -3.8163161e-03   4.1615262e-04
  1.2777489e-01   1.0836026e-04
 -1.0377764e+00   5.2904525e-05
  1.9147055e-01   3.3584260e-04
 -3.2916584e-04   9.7700104e-05
 -2.0041533e-01   3.3100023e-05
  3.3378329e-02   5.0007622e-04
  1.0594279e-03   2.9593045e-04
  3.7159953e-01   1.4118130e-04
 -1.0010845e-03   1.3921582e-04
  1.3669640e-05   2.7748747e-04
 -1.9538179e-03   3.4929274e-04
 -7.2361879e-02   5.5300596e-04
 -3.8610783e-04   2.5149985e-04
  4.8858527e-04   3.3759253e-04
 -4.6793055e-02   2.7736940e-04
 -1.4364325e-04   3.2307062e-04
 -2.5432557e-03   4.0833312e-04
  1.0916343e-03   2.2506714e-04
 -6.6978874e-04   1.5870086e-04
  2.0519231e-01   3.2733296e-04
 -7.2342050e-01   5.1722214e-05
 -1.1213179e+00   1.1522253e-05
 -1.9960463e-01   5.0058719e-05
  1.4433977e-01   9.5108780e-06
 -7.0212162e-01   2.0410587e-05
  6.4124316e-02   6.4289622e-04
  2.7205560e-01   2.1117799e-05
 -8.9342762e-03   1.0119854e-04
  9.7748351e-01   1.4299608e-04
 -5.7017477e-03   2.6907472e-04
 -1.3564815e-05   2.6388999e-04
 -7.0578149e-03   8.2663179e-04
  1.9763520e-03   2.2627210e-04
 -3.6957339e-05   1.1925340e-04
  2.3599076e+00   1.6309154e-04
 -2.4425739e-02   4.7709144e-04
 -3.1273803e-03   2.9967123e-04
 -3.1093639e-01   1.5078892e-04
  5.2639979e-01   1.0223093e-04
  2.1281703e-01   1.7255820e-04
 -9.4799161e-02   1.0159842e-04
 -6.9639242e-01   1.7171106e-04
  1.0027651e+00   8.2780156e-05
  5.4248802e-02   5.2824580e-05
  8.8531595e-01   1.0990518e-04
  8.2146943e-01   2.7466756e-05
 -8.3235785e-02   4.7607199e-04
  2.1597265e-01   2.5620859e-04
 -1.5653148e-01   2.7581156e-04
  4.0503427e-02   1.8295407e-04
 -3.9651396e-04   3.3097150e-04
 -5.8774870e-02   9.1324968e-05
 -3.7377816e-01   4.0527113e-04
 -2.2201850e-03   2.8246711e-04
 -1.1740110e-03   3.2426545e-04
 -6.1753150e-03   3.4638192e-04
 -1.9183496e-04   3.4006042e-04
  3.2288467e-03   5.1080948e-04
 -8.7841982e-03   1.6732102e-04
 -1.5707929e-01   1.7393712e-04
 -3.8787772e-04   1.8090183e-04
 -2.5250171e-03   2.9472631e-04
  3.3726019e-01   4.2756298e-04
  1.1296054e-01   1.5835851e-04
 -1.7474093e-02   4.7485164e-04
 -4.9524923e-04   7.3533607e-05
  3.1929664e-04   2.4679981e-04
 -5.1210858e-03   1.8809244e-04
  3.5628097e-04   1.0730698e-04
  1.0455924e-04   1.5264656e-04
 -7.4015355e-05   3.7589535e-04
 -2.3991014e-04   3.5915128e-04
 -1.7140081e-04   2.0716395e-04
  2.0555207e-03   2.1027395e-04
 -3.3298836e-04   3.7485294e-04
 -1.6923576e-04   1.2651877e-04
 -5.5138837e-04   3.0992189e-05
 -4.4827402e-04   1.3653994e-04
 -1.6118278e-03   1.3910951e-04
  1.6845887e-03   1.0072342e-04
 -2.9806339e-04   3.3179906e-04
 -2.1030192e-04   2.2142869e-04
 -4.9750648e-05   1.5314315e-04
  4.2770157e-04   1.9425548e-04
  1.6583185e-04   1.9659134e-04
 -9.4060443e-04   1.4463782e-04
  2.0447437e-04   1.3437780e-04
  1.7766126e-03   2.3686689e-04
  2.4410343e-04   3.4818758e-04
 -2.6663081e-04   1.6197172e-04
 -2.6143651e-04   1.5889948e-04
  1.7511660e-04   1.3116843e-04
 -7.7877508e-04   1.3104324e-04
 -2.5528375e-04   2.6357433e-04
 -1.8557528e-04   1.4153802e-04
  1.1964525e-04   1.7443833e-04
  1.0772063e-03   3.5021300e-04
 -8.2293554e-04   2.8682244e-04
 -2.3123730e-04   2.2733095e-04
  3.7695153e-04   8.8409513e-05
  6.2596409e-06   1.4854866e-04
 -1.6892237e-04   2.0326476e-04
 -5.5891590e-04   2.6477425e-04
  2.3493392e-04   1.0119495e-04
 -4.1680073e-04   2.4316904e-04
  9.6163503e-04   3.1070953e-04
  9.0455456e-04   1.5450169e-04
 -6.2895752e-04   1.2129618e-04
 -6.3304257e-01   5.3438784e-05
  9.9282002e-01   2.1229209e-05
  5.1992387e-01   1.6037963e-04
 -1.6219444e+00   5.6262194e-05
  1.3217596e+00   1.0619333e-05
  3.3360636e-01   4.8239724e-04
 -1.7003893e+00   2.0123438e-05
 -1.9839941e+00   2.5881463e-05
 -7.4108377e-02   2.1347040e-04
  8.5264452e-05   1.8664845e-04
  9.6174650e-02   3.7146441e-04
 -8.6982024e-01   7.8596699e-05
  1.2208244e+00   2.3072162e-04
 -2.6038024e-01   6.8308372e-04
 -9.1426283e-01   3.1529210e-04
  2.1405138e-01   9.8892138e-05
 -1.5533169e-02   5.5277999e-04
  1.8467751e-01   2.0006188e-04
 -1.0835661e+00   6.9850787e-05
 -1.0842444e-02   1.9118252e-04
 -1.5603870e-01   1.0915699e-04
  2.0075228e+00   4.6464294e-05
  2.6490039e-01   1.5900478e-04
  1.0477056e-02   6.6599093e-04
  4.5798150e-01   3.1399522e-05
 -1.4538229e+00   9.1348833e-05
 -1.3589141e-01   7.1543953e-05
  7.0300215e-01   1.5594077e-04
  6.0359335e-01   2.5664562e-05
  7.2558396e-02   3.1398237e-04
  2.9716319e-03   3.6107196e-04
  1.6729753e-01   1.1404834e-04
 -7.3128963e-01   2.2452774e-04
 -6.3802496e-02   3.2818739e-04
  4.7818479e-01   1.2884333e-04
  4.6690843e-01   1.4611526e-04
  3.5035172e-03   4.9311563e-04
 -6.6799676e-04   1.5585512e-04
 -3.1179219e-01   4.3074178e-04
  6.5989472e-04   4.6770426e-04
 -7.0916739e-04   1.5503971e-04
 -6.3925039e-04   1.3508069e-04
  9.0003258e-01   3.5420546e-04
 -5.1207024e-01   1.1177727e-04
  1.5002015e-01   8.4965766e-05
 -6.0823341e-03   7.2523842e-05
 -2.4336646e-03   2.1422256e-04
  1.6294413e-03   1.3197419e-04
 -2.2729506e-01   5.1185987e-05
  5.0640566e-04   1.8714624e-04
 -3.2164724e-05   5.4284272e-04
  4.4248877e-03   3.6655678e-05
  8.3101811e-05   3.9194632e-04
  6.2028412e-05   1.2074748e-04
 -1.4228868e-01   2.0625124e-04
 -3.8568308e-03   4.3773255e-04
  6.0996186e-02   2.5186071e-04
 -1.4512983e-04   1.9311758e-04
  4.2297597e-05   1.3170834e-04
  2.4147363e-01   5.3141842e-04
 -8.2971563e-04   3.8269843e-04
  5.5596046e-04   6.3463529e-05
  2.1843046e-02   9.9005105e-05
  2.3953447e-03   2.6965645e-04
  1.1811422e-02   1.5909041e-04
 -1.2671455e-03   1.8078199e-04
  2.3598630e-04   1.6403514e-04
 -1.5892807e-03   2.7885268e-04
  1.4325918e-03   1.1906454e-04
 -5.9386700e-02   5.5132849e-05
  4.2920440e-02   6.0900693e-05
 -9.6474425e-04   2.0147210e-04
 -1.2824771e-01   1.6239678e-04
  9.8214555e-04   2.3525606e-04
 -5.0399604e-04   1.4389769e-04
 -5.1186280e-04   2.1633861e-04
  7.9000951e-04   2.2893659e-04
 -1.4845554e-03   1.0615598e-04
 -1.5694105e-04   8.0333659e-05
 -3.5988627e-04   1.7696968e-04
 -1.0560080e-04   1.9657149e-04
 -1.0353038e-03   4.2780879e-04
 -2.8680013e-03   1.9564189e-04
 -2.4829218e-03   1.3289372e-04
  3.3984362e-04   2.5914691e-04
  4.8622096e-04   2.1780455e-04
 -7.9075173e-05   2.5951050e-04
 -8.0240524e-04   8.2007733e-05
 -5.1937421e-04   1.2129956e-04
 -1.9872408e-05   2.1800389e-04
 -5.7152729e-04   2.8529929e-04
 -3.9944932e-04   2.1676799e-04
  6.0825333e-02   3.1315422e-04
 -7.0507213e-04   2.4640551e-04
 -2.6014354e-04   1.5646305e-04
 -1.8564340e-03   2.3932885e-04
 -9.2282065e-04   1.6395276e-04
  2.8617310e-03   1.4073784e-04
  1.8891582e-03   2.5102275e-04
 -1.8276696e-03   3.1035003e-04
 -2.8139912e-04   9.8421639e-05
 -1.6250227e-04   1.2488106e-04
  7.9269381e-04   2.5667759e-04
 -6.3030992e-04   1.7352293e-04
 -4.1604982e-04   1.5965590e-04
 -8.7271043e-04   1.3794603e-04
  7.5530756e-05   1.9180018e-04
 -1.1106573e-04   2.0437705e-04
 -1.9548941e-04   1.1190597e-04
  2.0856445e-04   1.7879726e-04
 -2.4388344e-03   4.4349575e-04
  7.9100009e-04   3.0035505e-04
 -5.2544608e-04   2.1367395e-04
  1.6831364e-04   2.7773058e-04
 -7.3927949e-04   3.6041910e-04
  6.0173625e-04   2.9675980e-04
 -9.1991789e-04   1.0094580e-04
  5.2737072e-04   1.7462496e-04
  1.4158628e-04   1.2207843e-04
  2.9146860e-04   1.4141788e-04
  3.4960057e-04   3.7459843e-04
  1.1356584e-04   2.1160791e-04
 -5.3537334e-04   3.2101988e-04
 -2.1640334e-04   1.6831598e-04
  6.2414265e-04   2.3868549e-04
 -1.0216701e-03   2.5809798e-04
  2.3752971e-05   1.6864961e-04
  1.1796593e-03   1.5560363e-04
  1.3174551e-03   2.8356546e-04
 -3.5600140e-05   3.1603116e-04
  8.4916630e-04   2.2791974e-04
  3.9593375e-04   2.5833078e-04
 -2.3355075e-04   3.0779920e-04
 -1.2224702e-03   2.9880294e-04
 -5.5397872e-04   3.4514701e-04
 -3.8011279e-04   3.9564370e-04
 -6.3821244e-05   3.8702357e-05
 -3.6923101e-04   1.7163112e-04
 -1.8643917e-04   1.1078436e-04
 -4.5123071e-04   1.7534556e-04
 -1.2658013e-03   2.0112294e-04
  1.0640910e-04   6.9986978e-05
 -4.2526599e-04   3.6751421e-04
 -1.1956285e-03   8.8382949e-05
 -8.4543804e-04   2.6448449e-04
 -5.2848156e-04   1.4344734e-04
  8.1949045e-05   2.1446568e-04
  3.6289252e-04   4.1980718e-04
 -3.7326245e-04   2.0688170e-04
  1.7191720e-04   2.7039836e-04
 -1.1577045e-03   2.9244862e-04
 -5.2124372e-04   2.0543486e-04
 -7.3462405e-04   1.9266699e-04
  4.2250834e-04   2.6417864e-04
  1.5729418e-03   1.4269825e-04
 -2.5434629e-04   3.4738070e-04
 -7.4892351e-04   2.3933055e-04
  5.0096639e-04   1.5496914e-04
 -3.4717860e-04   1.3483988e-04
  3.4069683e-04   2.1773006e-04
 -3.1708896e-02   7.5632179e-06
 -4.3823093e-07   1.8433896e-04
 -1.4515830e-03   2.0171564e-04
  3.7204722e-04   1.6358691e-04
  1.2392732e-03   1.8617434e-04
  6.0347689e-04   1.7493500e-04
 -5.6380604e-04   1.5245100e-04
  1.3037748e-04   2.4906962e-04
 -4.2410841e-04   2.9865169e-04
 -1.3107688e-03   1.4476733e-04
 -1.7120148e-04   1.4701705e-04
  4.2475126e-04   1.8600700e-04
 -2.4565039e-04   3.8535896e-04
 -2.9741484e-04   2.9013853e-04
  9.9471316e-04   8.8430526e-05
  6.9255228e-03   1.9781143e-04
  1.5511201e-03   3.4560780e-05
  7.7332236e-02   1.0268713e-04
  1.3967485e-03   1.1146897e-04
  6.9590434e-02   9.4170813e-05
  3.7478349e-01   7.3065457e-05
  4.9811054e-04   1.9293281e-04
 -9.8476760e-02   2.6871518e-05
 -1.4244707e-03   9.2254821e-05
  3.2491588e-03   3.9694674e-04
 -1.2986679e-04   2.7374239e-04
 -5.8301952e-02   3.8188693e-04
  8.8439956e-05   1.4793671e-04
  2.0318171e-04   6.3414009e-05
  2.1533226e-04   1.9146576e-04
  2.6614094e-04   3.0071504e-04
  1.0972178e-03   2.6086939e-04
  1.9326049e-03   3.5420188e-04
  1.0179074e-02   7.1361421e-05
  2.3701205e-03   1.1881955e-04
  3.4556210e-01   1.1133901e-04
  9.7140772e-05   1.3027927e-04
 -3.0780229e-01   1.1338952e-04
 -6.0516919e-05   1.5094900e-04
 -6.2630052e-04   3.0628603e-04
  2.1536666e-04   1.6925303e-04
  2.3757845e-01   4.0338531e-05
  2.2661586e-01   3.9568389e-04
 -5.5141305e-03   1.3532187e-04
 -1.1740279e-01   5.8418114e-05
 -1.6393364e-05   1.9182176e-04
  3.0215507e-04   2.0015094e-04
 -6.0951333e-02   1.2386983e-04
 -2.0739939e-03   1.1659709e-04
  1.2404481e-03   2.0510015e-04
 -8.4178784e-05   2.2104981e-04
  1.3937654e-04   1.6689605e-04
 -8.4464188e-04   1.8361803e-04
  3.1093822e-04   4.2924497e-04
 -2.4942280e-04   1.9356239e-04
 -4.4801123e-03   2.6716341e-04
  3.3681304e-04   1.6167406e-04
  7.6919509e-04   1.5264389e-04
 -1.9919344e-03   3.0222879e-04
  1.3220369e+00   1.4231606e-04
  7.8634435e-01   3.3853757e-05
  1.2138427e+00   1.6660191e-05
 -5.1770627e-02   8.5714761e-05
  2.3273639e-01   1.7358447e-05
 -1.6623630e-01   3.9752340e-06
 -5.7089812e-01   2.1311871e-05
  1.0723521e+00   2.8483726e-05
  1.8867561e-01   3.9481321e-05
  4.2596218e-01   1.4403198e-04
 -7.5739319e-03   8.9780992e-04
 -1.0596165e-02   3.7937512e-05
 -2.0181169e-04   2.5183763e-04
 -1.2958941e-01   5.9741174e-05
 -5.8910781e-01   2.7172975e-04
 -1.8713197e-02   2.0646541e-04
  1.2883894e+00   9.7643227e-05
 -3.0195868e-01   4.3272416e-04
 -6.9494367e-02   5.6828965e-05
  3.5327089e-01   1.7814872e-04
 -4.4024545e-01   1.8705550e-04
 -5.8819205e-01   2.9255441e-04
  3.9768657e-01   1.2476712e-04
  1.5809320e+00   2.7769645e-05
  7.3879473e-02   3.0222465e-04
  4.9037793e-01   4.1556090e-05
 -1.4714226e-01   2.0086796e-05
 -6.5262872e-01   8.6680397e-05
  1.1277102e-03   1.3459886e-04
  3.0087531e-01   3.2113003e-05
  5.4479396e-01   1.0334065e-04
 -4.0347584e-02   1.4692784e-03
  1.9376919e-01   1.4120898e-05
 -5.3978618e-02   2.5479781e-04
 -4.8135886e-01   3.0777039e-04
  3.3528360e-03   6.2720319e-05
  9.7909488e-04   1.1309016e-04
  6.4456171e-01   4.2368603e-04
  1.0262641e-01   5.6775291e-03
 -3.5059857e-01   1.7088460e-04
 -1.4802943e-01   5.7799101e-04
 -4.8109773e-03   4.9470825e-04
 -4.0743337e-03   2.3708743e-04
  3.1050238e-01   5.8029173e-04
  9.8955061e-04   2.4543726e-04
 -3.2753887e-04   1.8280427e-04
  1.2166385e-03   8.2404047e-05
  8.7604107e-04   1.5191290e-04
  9.3822717e-04   3.0146181e-04
  6.9485992e-02   1.1403076e-04
  3.1501718e-03   4.4390654e-05
 -7.5526728e-04   2.0037664e-04
 -6.4356264e-04   1.4921029e-04
 -3.1691761e-04   2.7985492e-04
 -6.0933043e-04   3.1856078e-04
  6.8763114e-04   4.1397099e-04
  1.0937348e-04   2.6673995e-04