  4.4026374e-04   9.4886852e-04
 -2.7654273e-03   3.6068616e-04
  4.0110855e-05   1.4185007e-03
 -1.1288953e-03   5.4511515e-04
  2.5079863e-02   1.9388947e-04
  1.3256053e-02   6.6386501e-04
  1.8542905e-01   8.8205148e-04
 -1.1651242e-03   4.2536063e-04
  3.4517833e-04   4.9535919e-04
  9.6134162e-03   1.0215554e-03
  3.4951936e-03   1.6902360e-03
 -9.2917988e-03   3.0291782e-04
  2.3089019e-03   4.4073968e-04
 -4.8752041e-03   1.5639055e-03
  1.9390156e-03   1.0579096e-03
  2.4873319e-03   5.5249420e-04
 -3.7261983e-05   1.9670741e-03
 -1.8937475e-03   7.3034817e-04
  3.8295626e-03   1.0176799e-03
 -2.8930089e-04   5.3546549e-04
 -1.0686638e-03   6.4777944e-04
 -6.5747276e-04   1.1572711e-03
  3.0896947e-04   5.7688984e-04
  5.2561010e-03   1.0441425e-03
  5.1677818e-03   6.3180726e-04
 -4.0408304e-06   6.5280602e-04
  2.2316348e-02   2.3822227e-05
  1.0643101e-03   3.2460253e-04
  2.3413269e-02   6.2249898e-04
 -1.8440896e-04   1.2503266e-03
 -1.7269130e-03   2.1859501e-03
  4.9716071e-03   4.4010230e-04
 -1.2496535e-03   1.1473562e-03
 -4.8922054e-03   8.4331672e-04
  4.3807961e-03   1.3392051e-03
 -3.3432576e-01   5.3599896e-04
  3.9598574e-03   1.4478621e-03
 -3.9569726e-03   1.3054142e-03
 -1.0385188e-02   1.2065313e-03
 -2.1671099e-03   1.1108775e-03
  3.0497876e-03   1.3371615e-03
 -1.1021398e-02   7.1709737e-04
 -1.4958430e-04   5.9065368e-04
 -4.8893981e-04   1.4371634e-03
  6.0078930e-03   9.6160400e-04
 -4.4007553e-03   5.9953972e-04
  1.4949860e-03   9.7049976e-04
  3.8335060e-03   8.1280875e-04
  1.1515877e-02   1.3469059e-04
  4.1429777e-02   2.6265602e-04
  6.3987987e-05   4.4015719e-04
  1.0641008e-01   2.1608359e-04
 -4.6597291e-03   2.1851259e-04
 -8.2073675e-04   1.0007374e-03
  2.4892981e-03   1.1754918e-03
  1.0964444e-03   2.7035509e-04
 -7.3508621e-04   7.3979603e-04
 -5.6299237e-03   1.7787666e-03
  2.6985663e-03   6.8779098e-04
 -4.1249284e-04   5.1283691e-04
  7.4307187e-03   1.4793302e-03
  7.7991298e-04   5.7577429e-04
  1.1589818e-03   2.7089482e-04
  2.1639799e-03   1.1144468e-03
  8.3716400e-04   4.8500227e-04
 -5.9341853e-03   8.8517996e-04
  1.5139078e-05   5.8344466e-04
  2.1516038e-03   8.3425688e-04
  2.6335388e-03   8.5268618e-04
 -9.0409274e-04   6.0842081e-04
 -8.8043051e-04   7.6932582e-04
  2.6401173e-04   5.3160114e-04
  1.0574208e-02   3.1019081e-04
 -6.0080481e-03   7.4643688e-04
  5.0937906e-03   1.3133824e-03
  3.3872831e-03   1.7018139e-03
 -5.4576849e-03   1.3970921e-03
 -1.1206078e-02   3.1843383e-04
  8.8676432e-04   1.1105128e-03
 -1.4969853e-02   9.2617632e-04
 -8.7017758e-04   1.0373432e-03
 -5.6996970e-03   1.8206501e-03
 -6.6702161e-03   4.3843701e-04
 -1.2571902e-03   9.8976097e-04
 -1.3540026e-02   6.0203468e-04
  1.9154659e-03   1.1231595e-03
  5.0198543e-03   1.6678987e-03
 -2.8539430e-03   1.4909611e-03
  1.2732001e-03   1.0646853e-03
  3.4164230e-03   7.6097588e-04
 -3.4362547e-02   5.8563670e-05
  2.6161771e-03   1.6491914e-03
 -1.4909216e+00   2.8249234e-04
 -1.8365435e-01   5.5271992e-04
  2.8290325e-01   6.5867108e-04
  6.0685641e-01   3.7310636e-04
  3.5163280e-02   3.2545379e-04
 -7.9282123e-04   6.0473051e-04
 -4.1946489e-03   4.3560137e-04
  3.1346926e-03   4.3363919e-04
  3.8968617e-04   1.3201217e-03
  1.5800688e-04   7.5791497e-04
 -3.6487149e-03   7.0985180e-04
  1.0315349e-03   8.6737133e-04
 -3.8569324e-02   8.3611601e-05
 -8.3344459e-04   2.1243705e-03
  1.3031595e-04   1.0380230e-03
  4.8141292e-04   1.8546203e-03
  1.5056382e-03   1.4848155e-03
  1.4896793e-03   1.1157849e-03
 -2.3188259e-04   8.0629071e-04
  3.2272891e-03   6.3116866e-04
  5.1981183e-03   1.3255780e-03
  4.1231996e-04   5.5847375e-04
 -1.0064489e-04   8.0158579e-04
  3.0556365e-03   1.8177595e-03
  8.2028605e-04   7.1549427e-04
 -5.0486322e-04   6.1835069e-04
 -5.1231058e-03   1.2178929e-03
  2.2112319e-04   9.7590510e-04
 -1.2562971e-03   9.6562726e-04
 -3.4186521e-03   1.3044935e-03
 -5.7672504e-03   1.4689115e-03
  1.1690190e-02   1.0288917e-03
  1.1840630e-02   8.9252641e-04
  4.9037673e-03   1.6600570e-03
 -9.0774649e-04   1.5472588e-03
 -2.4717706e-03   9.0371695e-04
 -4.8732781e-03   1.4426258e-03
 -3.0520102e-03   8.1394071e-04
  2.0673645e-03   1.0959922e-03
 -6.5885560e-04   9.6765778e-04
  2.3901775e-03   1.9637453e-03
  2.3581090e-03   7.9632964e-04
 -3.9982088e-03   9.9873741e-04
 -1.5501892e-03   3.8285414e-04
  1.2356956e-02   8.8932994e-04
  5.2046087e-03   4.9006322e-04
  1.2845214e-04   1.1554121e-03
 -1.2727870e-02   8.3990878e-04
 -2.0752081e-03   1.4419828e-03
  1.1626780e-02   1.2532194e-03
 -3.7837992e-03   8.3107012e-04
  9.9049683e-04   7.0645520e-04
 -9.5966160e-03   6.8906695e-04
 -1.1091147e-04   1.4274159e-03
  4.7230469e-03   8.3607546e-04
 -1.4288655e-03   1.5519570e-03
  3.1970823e-03   2.1506869e-03
 -1.6109177e-03   4.7493834e-04
 -2.2449819e-03   1.0104419e-03
  2.9537121e-03   7.2535517e-04
 -1.7446954e-03   7.9579267e-04
  2.8528254e-03   4.7709473e-04
  5.7620695e-03   1.5287744e-03
  8.3901506e-04   1.1380151e-03
  1.9941558e-03   1.4065057e-03
 -9.2022528e-04   6.8343751e-04
 -3.2506734e-03   1.8582794e-04
  3.2629978e-03   1.7298723e-03
 -2.2868863e-03   1.8235273e-03
  6.1265519e-04   4.7226349e-04
 -5.8828881e-03   1.1032174e-03
  7.2446140e-03   5.5888784e-04
 -1.1173458e-03   7.1625097e-04
 -3.0125624e-03   1.2907576e-03
  5.4005976e-04   1.0717650e-03
 -1.9006760e-04   6.6414097e-04
  7.4468565e-04   1.2392367e-03
  1.7980076e-03   1.7447360e-03
  4.0764600e-04   1.3506807e-03
  1.3051287e-03   6.4098585e-04
 -1.0493397e-03   8.2529016e-04
  2.4311610e-03   7.7422656e-04
 -1.5791437e-03   1.3348092e-03
 -6.1151331e-05   1.3358502e-03
  8.3980449e-03   2.9493583e-04
  3.8337046e-03   3.2390200e-04
  4.5972079e-02   3.8832295e-04
  6.9292642e-02   1.4164162e-04
 -3.0295163e-01   9.3758397e-05
  1.0603529e+00   4.6887486e-05
  1.1209198e+00   2.4106271e-04
 -6.3352443e-02   9.8283475e-05
 -1.3684552e+00   5.3718981e-05
 -5.4661506e-03   1.5777230e-03
  5.0811102e-03   9.1281359e-04
  1.4048992e-01   8.0225611e-05
 -1.4528728e-04   1.0041781e-03
 -2.2093083e-04   8.0623652e-04
  1.5144050e-03   1.7855798e-03
  5.7276199e-03   7.2256417e-04
  2.1129876e-02   2.5396605e-03
 -2.5824434e-03   9.7290619e-04
  4.9380243e-02   8.1352005e-04
 -1.0322994e-03   7.5129105e-04
  1.7200769e-01   2.8963189e-04
 -1.1795595e-03   9.0231956e-04
  9.6617647e-02   5.6598755e-04
  2.2188809e-03   9.7953179e-04
  2.3238496e-03   9.2146150e-04
 -1.0676619e-02   1.5196952e-04
 -3.6767387e-01   2.9752686e-04
 -3.0400276e-01   8.9682452e-04
 -1.1243112e-02   7.9443556e-04
 -5.2827798e-02   7.5363315e-04
  4.0257499e-03   1.0893485e-03
  9.7960854e-01   2.4929117e-05
  1.6046531e-02   1.2083843e-03
  3.5450370e-03   6.4513774e-04
  2.9544090e-03   4.1871067e-04
  7.4341856e-03   7.6397520e-04
  3.0774539e-03   8.0463744e-04
  3.3326089e-01   3.4446255e-04
 -5.7060330e-04   2.0302304e-04
  2.2236133e-02   5.5915385e-04
  1.9857329e-03   1.2601009e-03
 -9.4371440e-05   1.4979307e-03
  7.4360071e-04   8.3654595e-04
 -4.9204794e-03   4.7625115e-04
  4.5096404e-03   5.2577961e-04
  3.4518256e-03   1.0071745e-03
  5.7215048e-03   4.8354518e-04
  1.9313378e-03   1.8438237e-03
  9.4292438e-05   2.2191572e-04
 -3.3702268e-03   1.9085145e-04
 -1.6419890e-03   5.8547081e-04
  5.2034765e-02   7.1066228e-05
 -2.1792729e-03   9.3511189e-04
 -6.6913606e-04   8.8738918e-04
 -3.1890802e-04   3.0596161e-04
 -1.6617017e-03   7.6411443e-04
  7.5269076e-03   1.6439250e-03
  5.6052161e-03   6.8366417e-04
 -5.5312058e-03   3.7713227e-04
 -2.6459482e-03   6.6066597e-04
 -2.0215525e-03   6.1822642e-04
  3.6213140e-03   1.2962914e-03
 -1.5584523e-02   1.6750400e-04
  2.9094410e-03   5.3456612e-04
  2.0391466e-03   5.1166036e-04
  1.6545096e-02   3.4253811e-04
  3.0974706e-04   4.2975752e-04
 -1.6691185e-03   1.3507904e-03
 -4.6094186e-03   1.3878229e-03
  3.0920552e-03   5.4717163e-04
 -2.8987620e-03   4.9332442e-04
 -1.3225545e-03   8.3399599e-04
 -4.0544317e-05   4.9860397e-04
  4.1600535e-04   4.9428974e-04
 -2.1133691e-03   6.2015111e-04
 -2.8648456e-03   1.6086336e-03
 -1.9858363e-03   7.3419651e-04
  1.1156020e-03   4.1352076e-04
  1.3085582e-03   9.0499065e-04
 -1.4990154e-03   1.0431142e-03
 -8.8485476e-04   9.5536571e-04
  2.6696571e-03   4.5787022e-04
  2.5960413e-05   9.0542255e-04
  1.6339488e-03   5.8274315e-04
  7.4480632e-03   1.2862890e-03
 -3.0399261e-03   6.5558538e-04
  2.0363678e-03   1.3634468e-03
 -4.0254360e-03   1.7019642e-03
 -2.9145575e-03   7.9084479e-04
 -4.5413282e-03   1.1931027e-03
  4.7700116e-03   4.3171481e-04
 -6.7215803e-04   4.2070294e-04
 -2.3343076e-01   2.9628971e-04
  4.8034644e-01   1.2566012e-04
 -1.3074140e-01   5.0445681e-04
 -4.9185462e-02   4.6643534e-05
 -5.8370497e-04   1.0190500e-03
 -2.5162433e-04   1.3020377e-03
  1.9966804e-03   4.7302686e-04
 -7.1126428e-03   1.5673775e-03
 -2.2742587e-04   7.2474335e-04
  3.7581371e-03   7.3847180e-04
  2.1808860e-03   1.3471465e-03
 -1.1102994e-03   1.2177583e-03
 -6.0960422e-03   9.4846723e-04
 -1.9953977e-03   1.9828166e-04
  6.7113579e-04   1.1139829e-03
  3.8380355e-03   9.7608450e-04
  9.0643251e-03   8.5985498e-04
  1.6589461e-04   7.1702385e-04
 -4.0826043e-03   2.3976883e-03
 -5.6697801e-04   1.0955435e-03
  2.1045047e-04   1.0351234e-03
  7.6538520e-03   9.9284446e-04
  4.4579138e-03   2.8048357e-04
  3.0053509e-03   1.4314461e-03
  3.8626502e-04   7.6638279e-04
  4.7971369e-03   5.6010846e-04
  1.0350264e-02   1.5060045e-03
 -2.1098759e-03   1.4779826e-03
 -2.8732824e-03   1.6571782e-03
 -5.8329036e-03   1.6803719e-03
 -4.4471226e-03   9.6473237e-04
 -5.5773733e-03   1.1213500e-03
 -3.8140975e-03   1.8115095e-03
 -9.3739377e-03   1.6446860e-03
 -1.3344382e-03   1.3150130e-03
 -3.4186712e-03   7.7825121e-04
 -3.9224122e-03   5.3040317e-04
  2.6428788e-03   3.9609606e-04
  1.1818336e-02   3.0870270e-04
 -1.9352618e-03   6.8752107e-04
 -2.0915018e-03   1.2152015e-03
 -3.0495878e-03   6.5892265e-04
 -2.0697182e-03   6.1562459e-04
 -5.8628958e-01   4.2776996e-05
 -2.9186581e-03   1.6101981e-03
 -1.2074220e-03   6.4955605e-04
 -2.1669776e-03   1.2092160e-03
  4.4678105e-04   6.2667328e-04
  1.1233785e-03   1.1925555e-03
 -2.9285424e-04   9.5815770e-04
 -1.8644142e-03   1.5471700e-03
 -7.0628326e-04   6.1139069e-04
  6.2364526e-04   1.5535676e-03
 -3.6461456e-03   1.2357705e-03
 -5.4449830e-03   1.9081697e-03
 -2.9294242e-04   1.5670590e-03
  3.7480406e-03   6.8995770e-04
  3.2696268e-03   1.0679791e-03
 -9.8310700e-03   1.1707705e-03
  1.5394528e-03   1.2228949e-03
  1.1061439e-03   2.2000747e-03
  2.3696113e-03   5.6784367e-04
 -4.5707216e-03   1.0320612e-03
 -5.4268362e-03   4.5994978e-04
 -5.9105223e-03   1.1556455e-03
  1.5257890e-03   1.0803947e-03
  2.0085906e-03   7.2751800e-04
 -7.2610788e-03   9.6980104e-04
  2.7726023e-03   1.0954347e-03
 -5.1270830e-03   8.8933948e-04
  2.1841249e-03   7.9903705e-04
  2.4901696e-03   1.8197278e-03
 -3.3193578e-03   1.8757205e-03
 -6.1951564e-03   3.5382633e-04
  6.1040828e-03   7.6688017e-04
  1.1441140e-02   2.6854423e-03
  5.0763427e-03   1.2130120e-03
 -2.2066440e-03   5.3716503e-04
  2.9480935e-03   1.4817949e-03
  2.5070827e-03   9.2268526e-04
 -1.0032763e-03   1.2380334e-03
  1.9708198e-02   9.4228052e-04
 -1.2213639e-03   1.3245053e-03
 -1.5284895e-03   1.0236584e-03
 -6.7214556e-03   5.9432792e-04
  8.7604914e-03   9.6984091e-04
 -2.7544864e-03   7.1562134e-04
  2.2126765e-03   5.4908835e-04
 -6.2002164e-01   2.0329430e-04
 -3.9328006e-03   8.4384519e-05
  5.8610201e-01   2.3143286e-04
 -9.4618160e-01   2.9763469e-05
 -1.0307164e-01   1.9142810e-04
 -1.1760547e-03   2.3161287e-03
  1.0409744e-03   4.0658889e-04
  1.6693793e-03   3.8290053e-04
 -2.4469472e-02   1.1465566e-03
  1.0038775e+00   6.5834189e-05
 -9.9542842e-05   8.9848961e-04
  3.6464553e-02   1.4394522e-03
  1.7990109e-03   1.4942361e-03
  3.9858692e-03   1.3343550e-03
 -7.3646574e-05   9.7182172e-04
 -3.2691713e-03   4.9291557e-04
  4.0900470e-03   1.0698646e-03
  7.7036418e-02   1.6178779e-04
 -1.0378854e-03   1.0224031e-03
 -1.9890055e-02   1.4846784e-03
 -1.5220928e-03   4.3639384e-04
 -2.5056186e-04   8.5927016e-04
  1.0739808e-03   9.3271915e-04
  6.3349861e-03   5.6696316e-04
 -2.8359225e-01   1.2618305e-04
  8.7158745e-03   9.1759604e-04
  2.8362020e-03   5.8416871e-04
  7.0837982e-02   3.0337012e-04
  5.0795134e-03   9.6545252e-04
  2.1552858e-03   5.0743815e-04
  7.7223650e-04   9.6660305e-04
 -1.3532333e-02   7.0342812e-04
 -1.2440907e-04   9.9317753e-04
 -2.8997383e-03   1.0175048e-03
 -2.2281830e-03   7.9744548e-04
  4.2430678e-05   2.6574280e-04
  7.7059062e-04   7.9757505e-04
  6.2770881e-03   1.1307553e-03
  4.3604698e-05   5.8514095e-04
 -3.5974031e-04   9.4173558e-04
  1.9827005e-01   3.2195402e-04
 -4.4176251e-02   8.1896076e-05
  1.5948032e-04   4.1117609e-04
  1.3844687e-01   7.2450325e-04
  2.7742311e-01   5.7809597e-05
  1.6036984e-02   2.3739410e-04
  8.4684789e-03   1.5068743e-04
  3.5048237e-01   3.5236569e-04
 -7.3912434e-02   1.8901986e-04
 -1.6611535e-02   1.7015977e-03
  5.2156043e-03   7.0539798e-04
  1.9843668e-01   5.2783225e-04
  3.8358811e-02   9.7490055e-04
  9.9213480e-04   1.0030927e-03
  1.4116690e-01   4.3471550e-04
 -4.1189593e-01   5.2113587e-04
  1.3627996e-02   1.2467428e-03
  1.3415714e-03   4.0914025e-04
  2.5237290e-02   8.8031738e-05
  4.2907619e-01   6.7837216e-04
  2.5609503e-02   1.8778264e-04
  1.3773000e-01   3.3449271e-04
 -9.1843726e-03   4.9551530e-04
  1.5390599e-01   1.5089317e-03
  5.6173117e-03   5.6670589e-04
  3.5313126e-01   1.9625424e-04
 -5.3156249e-02   2.5121789e-04
  2.7306736e-01   2.3513146e-04
 -1.4677102e-02   2.6850120e-04
  7.1478379e-04   2.1747986e-04
  2.1104956e-02   7.8920065e-04
  1.5091453e-02   1.5954124e-03
  1.4898351e-01   3.5597573e-04
 -3.0899962e-02   1.3111419e-03
 -2.1799607e-03   1.3408994e-03
 -1.8852794e-03   7.3539087e-04
  4.9195334e-04   3.7033670e-04
 -1.1325798e-03   1.0741334e-03
  4.0342174e-03   4.9531809e-04
 -1.1249291e-03   9.2094403e-04
 -6.3152440e-02   3.0619951e-03
 -5.9344643e-04   9.8460901e-04
 -1.9978020e-04   3.1659697e-04
  9.6784974e-04   9.3076285e-04
  2.8050919e-03   7.5326866e-04
  8.4511321e-03   1.5742878e-03
  5.3087715e-04   1.0385151e-03
  4.7286015e-02   3.9340163e-04
  9.6207671e-03   2.8985058e-04
 -8.3374552e-04   8.0832298e-04
  1.0631391e-03   1.0490876e-03
 -2.7756477e-04   2.9295898e-04
 -4.5626927e-03   1.6978008e-03
 -2.9920891e-03   6.2129128e-04
  5.4799523e-03   1.3186289e-03
  4.4843378e-03   9.1607921e-04
 -3.2428376e-04   5.5139657e-04
 -2.0804124e-01   1.3821203e-03
  9.8464909e-05   7.4618391e-04
 -5.9524425e-03   7.2005927e-04
  1.8771917e-03   1.6161017e-03
  3.3759079e-03   1.4064607e-03
 -1.8709733e-03   1.0713806e-03
  2.9198332e-03   1.2600248e-03
  5.0231291e-04   7.4920279e-04
  9.8581961e-04   1.9673955e-04
  1.5548344e-02   1.1571434e-03
 -6.6602863e-03   1.2835776e-03
 -3.9739250e-03   9.6929568e-04
 -5.9782085e-03   8.1810937e-04
 -2.5934156e-04   6.4165972e-04
 -2.0019474e-04   1.1949653e-03
 -2.4440901e-03   1.1903608e-03
 -3.1595330e-03   1.1339370e-03
 -4.1892808e-03   1.2427242e-03
 -1.0308084e-03   1.8886796e-03
  1.0538272e-03   5.7262636e-04
 -4.5605716e-03   1.3053321e-03
  4.8425395e-04   8.7436789e-04
  4.2074742e-03   8.2981394e-04
  3.2548825e-03   1.8302911e-03
 -4.6205590e-04   2.0144209e-04
  7.3380559e-04   6.4665434e-04
  3.8227546e-03   1.0140295e-03
  8.5854979e-04   1.7077585e-03
 -2.8137085e-03   8.2939706e-04
  7.9661598e-03   1.0758588e-03
  1.4188105e-03   1.3521357e-03
 -8.9471005e-02   3.2466091e-04
 -1.0013439e-03   6.2451354e-04
  5.9539406e-04   9.0014201e-04
  1.0579706e-03   3.4173805e-04
 -5.2127361e-02   3.5430561e-04
  6.7263842e-01   2.5533460e-05
  2.7957821e-01   3.9272720e-04
 -4.7603083e-01   9.8231059e-05
 -2.5400747e-02   1.1704153e-04
  1.0743182e-03   2.2288340e-03
  1.7538755e-03   2.8325219e-04
 -2.1896360e-03   7.3259103e-04
  6.0548156e-04   1.7172073e-03
 -1.7449764e-03   1.0016048e-03
 -9.0868715e-03   5.4151326e-04
 -5.5687703e-02   1.7979805e-04
  1.7524495e-03   1.5047998e-03
 -1.4834790e-03   5.9112406e-04
 -1.7821797e-03   1.1847508e-03
  3.0023833e-03   8.8687165e-04
 -7.3422794e-04   1.0692143e-03
  8.5706641e-05   5.9028290e-04
  2.2510448e-03   2.7000351e-04
 -2.1986422e-04   1.1336204e-03
 -4.0127854e-03   6.5743981e-04
 -7.5199949e-03   1.9743710e-03
 -1.1421191e-03   5.7217752e-04
  3.8438458e-02   1.6799610e-04
 -8.8340873e-03   5.2149757e-04
  8.6954489e-02   8.2058599e-04
 -1.4548543e-03   1.4529541e-03
 -8.4337518e-03   9.0543623e-04
  2.5948992e-03   1.3818658e-03
  1.0936997e-02   9.3906774e-04
  8.0888235e-04   5.2679150e-04
 -2.7295266e-04   7.1074266e-04
 -4.8544221e-03   5.7389488e-04
  2.9633821e-03   8.0287323e-04
  4.7847596e-05   3.2000308e-04
  3.1882008e-03   7.4177870e-04
  6.4307908e-03   9.6440112e-04
 -1.5404096e-02   9.1065228e-04
  1.1631058e-03   1.3621097e-03
  3.2595589e-03   1.7180343e-03
 -6.9714379e-03   3.6766793e-04
 -1.7528990e-02   2.4634181e-04
  5.9990364e-04   3.3575841e-04
 -1.9228456e-03   4.6403642e-04
 -2.3787454e-01   1.5010482e-04
 -1.2600814e-01   4.1933917e-04
 -2.9634421e-03   4.6546618e-04
  5.7428300e-02   7.2805551e-06
  1.0675551e-01   3.2982425e-04
 -5.1586600e-03   8.5789344e-04
  1.0982531e-02   6.2275719e-04
 -8.7079676e-03   1.6779505e-03
 -2.2153370e-03   8.9113537e-04
 -3.3104504e-03   1.0245541e-03
 -2.5890255e-03   1.0198699e-03
 -5.8684077e-02   9.1659822e-05
 -1.3984274e-03   2.1160182e-03
  6.2152231e-04   1.6749246e-03
  6.1610166e-04   6.3752400e-04
 -5.5021155e-03   1.0290544e-03
 -5.1080775e-03   7.5919385e-04
 -1.8558539e-04   7.8263512e-04
 -9.3558826e-04   8.8359084e-04
 -3.0060655e-02   2.7427540e-04
  5.6094432e-04   1.2137051e-03
 -5.4985494e-03   1.2420022e-03
  3.2880660e-03   5.0125283e-04
 -9.9606395e-02   4.1068935e-05
 -7.6345795e-01   1.1848690e-03
  6.7656182e-02   6.5032986e-04
 -2.6825208e-03   5.7992298e-04
  5.9226400e-04   6.5802189e-04
  1.4922966e-03   1.0311349e-03
  3.5120093e-03   7.9884799e-04
 -4.9262447e-03   4.2845341e-04
  1.0234979e-03   5.7741138e-04
  1.8184555e-03   1.7764900e-04
 -3.8340944e-03   1.2003398e-03
  1.7584672e-03   9.1970025e-04
  4.5331023e-03   8.0621161e-04
  3.8077075e-03   1.1771587e-03
  1.2569159e-04   1.1767267e-03
  2.8991913e-03   9.6022384e-05
 -7.3018266e-05   1.1932828e-03
 -3.0281420e-03   1.3975692e-03
 -1.8238038e-02   9.3099172e-04
  1.3052134e-03   5.6773378e-04
 -2.4103411e-03   1.3362165e-03
  1.3294347e-02   5.6774216e-04
 -3.0102334e-03   5.5841991e-04
 -3.9690189e-04   2.0069354e-04
 -1.7430292e-01   5.7455880e-04
 -6.8294881e-03   6.8920251e-04
 -3.5224666e-03   1.4740675e-03
  3.3881745e-04   1.1357693e-03
  5.6920719e-04   8.0641959e-04
 -1.8032100e-03   9.3587773e-04
  9.5830567e-04   1.5468594e-03
  1.1173411e-02   8.1491383e-04
 -1.1187640e-03   4.7333766e-04
 -3.7847694e-03   1.2777372e-03
  1.4301132e-02   9.7752828e-04
 -1.1222999e-02   1.8986264e-03
  2.1239906e-04   1.4976810e-03
 -1.5165678e-03   1.5618077e-03
 -7.0754257e-03   1.9583495e-03
 -3.1072241e-03   1.3829686e-03
  6.1887125e-03   6.0908264e-04
  9.7129500e-04   1.2886643e-03
 -5.9237210e-03   5.7556579e-04
 -9.0718403e-04   1.0485362e-03
  1.3271172e-03   1.7161003e-03
  3.3690555e-03   4.7874911e-04
 -1.2784956e-03   1.4897794e-03
  2.4802519e-03   9.7680220e-04
 -2.9853503e-03   1.2707833e-03
  3.1898238e-03   1.5235110e-03
  3.9840019e-03   1.0151353e-03
  1.9153961e-03   4.1508855e-04
 -1.8962839e-03   6.3484383e-04
  9.5150983e-03   9.6433325e-04
 -9.9990368e-03   7.9594628e-04
  2.6773498e-03   9.4809697e-04
  1.5140474e-03   4.7872230e-04
  1.7082945e-03   1.1958663e-03
 -1.0020463e-03   8.3670655e-04
 -6.2361844e-03   5.9601414e-04
  1.0567697e-02   1.0315571e-03
  2.5621820e-03   1.6600554e-03
  6.8027992e-03   1.1454968e-03
 -3.2750303e-03   4.0420031e-04
  5.4811093e-04   1.6930143e-03
 -7.3662259e-02   5.3133536e-04
  2.6417842e-02   1.6346190e-04
  1.0075600e-01   1.5915972e-04
  2.2235371e-03   4.6227287e-04
 -1.8409368e-03   1.8772153e-04
  1.4140127e-03   1.2162897e-03
 -7.7330130e-03   8.5273356e-04
  8.7781763e-03   4.6674444e-04
 -5.1698969e-03   1.0114829e-03
  2.6178762e-04   6.7532668e-04
 -2.4976402e-03   2.3288822e-03
 -5.0571770e-03   4.1757227e-04
 -1.8458457e-03   4.2164139e-04
  3.0554100e-03   3.0163606e-04
 -9.0258237e-04   7.4751250e-04
 -1.2007842e-03   7.7774149e-04
 -3.4787334e-03   1.4231987e-03
  4.9639288e-03   4.5302685e-04
  2.3063400e-04   9.4913191e-04
  1.7342711e-04   1.2557169e-03
 -2.5500422e-03   1.1660041e-03
  7.0915282e-02   6.2085071e-04
  1.7856063e-03   4.0754862e-04
  7.3326943e-03   6.3729758e-04
 -6.3749566e-03   1.1221245e-03
  1.7612760e-03   1.2742262e-03
  1.3702798e-03   1.2131276e-03
  3.4531986e-03   4.8401242e-04
 -1.2027250e-02   4.3854586e-04
  2.3152633e-03   6.3438661e-04
 -8.2070241e-03   1.2983532e-03
 -1.6200368e-03   1.2571730e-03
 -1.7045622e-03   7.6946052e-04
 -1.3821614e-03   8.1314280e-04
 -6.9326311e-03   1.0210751e-03
 -3.1830564e-03   8.8307296e-04
  5.2336920e-03   7.7787146e-04
 -1.6862440e-03   7.2935456e-04
  6.3439854e-03   8.3169108e-04
  1.7685785e-03   1.2136113e-03
 -1.8859591e-03   2.5307198e-04
 -5.1671418e-04   6.6507736e-04
 -1.1056028e-02   1.1695820e-04
 -5.2786572e-04   5.4562645e-04
 -2.1949969e-03   1.8730751e-04
 -1.1252123e-06   2.7037557e-04
  9.6269585e-03   4.3163972e-04
  9.0009952e-03   1.8554881e-04
 -1.1901068e-02   4.9798511e-04
 -1.5056639e-03   1.6885229e-03
  1.4124515e-02   1.2311179e-04
  1.0444697e-02   1.0882746e-03
  4.5283590e-03   1.6534972e-03
  2.5605957e-03   7.1429816e-04
  1.9360734e-02   8.1579381e-04
  3.9512897e-03   4.7761574e-04
 -2.9134513e-03   1.3369715e-03
  4.6076584e-03   6.3657056e-04
  2.0286087e-03   9.0781343e-04
  3.7970105e-03   3.4736158e-04
 -1.1050828e-03   5.2025251e-04
 -1.4111086e-03   7.2835665e-04
 -2.9550747e-03   7.9970591e-04
  9.5596565e-03   1.4887741e-03
  3.4638748e-03   8.8346697e-04
 -9.8668048e-03   7.8125409e-04
 -3.5956491e-02   4.8330694e-04
 -5.2739452e-03   4.3165928e-04
  5.6665088e-04   3.3505182e-04
 -6.2094037e-03   7.2632253e-04
  6.9561312e-03   1.0300828e-03
  7.3610791e-03   1.0738827e-03
  3.7072590e-03   8.3480665e-04
 -6.3199443e-03   2.0659552e-03
  1.8236358e-03   4.1997476e-04
  6.8449340e-04   1.1593422e-03
 -7.0308838e-03   9.4197254e-04
 -1.1335999e-03   1.0934883e-03
  7.1571278e-03   1.2470259e-03
 -8.9278253e-04   1.3042062e-03
 -3.3755136e-01   1.6289733e-04
 -3.6619545e-03   6.8027509e-04
  5.4300292e-03   1.0136151e-03
  2.9681404e-03   1.1319711e-03
  3.9336919e-03   3.1821919e-04
  1.4295955e-03   8.4067619e-04
 -6.3617006e-03   9.7957090e-04
 -4.1223196e-03   1.7208749e-03
 -1.9169323e-03   8.0419780e-04
 -1.8682788e-03   5.7089736e-04
 -4.5348909e-02   8.6450666e-05
 -6.8548881e-04   7.9423765e-04
 -4.8517724e-03   1.8678813e-03
  7.2918371e-03   9.0491562e-04
 -6.4634196e-03   8.5804256e-04
  9.6625006e-03   2.4207192e-04
  5.9385267e-03   1.6572831e-03
  1.3928829e-03   1.7302681e-03
 -3.5701483e-03   8.2672859e-04
 -3.4269833e-03   7.5047376e-04
  2.6214130e-03   5.3404021e-04
 -3.1581381e-04   1.0951164e-03
 -1.4409027e-03   9.9656987e-04
 -2.0626052e-03   1.3097087e-03
 -1.3832935e-02   7.8128476e-04
 -3.0585215e-03   8.4926916e-04
  3.6155158e-03   6.8431580e-04
  7.9854205e-04   1.7442940e-03
  3.3720338e-04   6.4139121e-04
  4.3309079e-03   5.0100696e-04
  3.0350825e-03   3.8610140e-04
  3.8848957e-04   8.2017056e-04
 -4.6666898e-03   2.8587924e-04
  2.7166980e-03   1.3598712e-03
  1.0259888e-02   1.0172554e-03
  5.8946940e-03   1.7186434e-03
  1.3375103e-03   7.6975580e-04
  8.6477055e-04   1.2413026e-03
 -2.2045402e-03   1.0571532e-03
  1.0353333e-03   9.5967227e-04
  5.5128550e-03   1.3086380e-03
 -2.3966690e-03   9.7095309e-04
 -7.0854940e-04   1.0673178e-03
 -1.9534847e-03   6.7371427e-04
  5.3458533e-04   1.0674662e-03
  6.1774952e-03   1.3963761e-03
  2.0901673e-03   9.6419232e-04
  1.6271444e-03   1.6746572e-03
 -6.7852447e-03   2.6640247e-04
 -1.0831193e-03   1.8466772e-04
  3.5921976e-01   2.6139116e-04
  1.3108818e-01   1.2279162e-04
  3.4535300e-02   2.4409725e-05
  2.7016106e-01   2.3896939e-05
  3.7131143e-01   1.3867847e-04
 -4.0485913e-01   7.2197297e-05
 -7.7922255e-02   8.5792737e-05
 -4.8522325e-03   9.9076307e-04
  2.7148438e-01   7.3193526e-04
  2.0982568e-01   5.9216324e-04
  1.9878399e-01   8.4221695e-04
  2.0983249e-01   9.8441873e-05
  5.4828143e-01   5.4728775e-04
  5.0737889e-04   2.5073130e-04
 -5.7775020e-03   4.4487545e-04
 -6.2761148e-03   1.4587949e-04
  6.4731329e-03   4.4734866e-04
  5.2868385e-02   5.9698796e-04
  1.7787838e-02   1.8666300e-04
 -1.3266861e-01   1.5529236e-04
  9.1075236e-03   2.6469506e-04
  1.6798261e-01   6.9121912e-04
  2.4562727e-01   9.9572306e-04
  6.8811611e-03   4.1010507e-04
 -1.3565169e-01   1.3163665e-05
  1.5781595e-03   5.5063196e-05
  1.6286454e-01   2.3281528e-04
 -2.0170704e-01   2.3175697e-04
  1.8556155e-03   1.2298085e-04
  1.7072026e-02   6.2338798e-04
  1.0144550e-02   7.7139557e-04
 -7.7555105e-02   4.7720750e-04
  6.2385793e-03   8.5235364e-04
  6.8643063e-02   3.0972052e-04
 -1.4063069e-01   6.6194724e-04
  9.9123002e-04   8.8061363e-04
  4.2560720e-03   1.1203004e-03
 -4.4241939e-03   5.4966420e-04
 -3.0099934e-01   4.3328863e-04
  8.7538853e-02   4.5213435e-04
 -1.6126642e-04   9.7778381e-04
 -2.3594182e-02   2.9461912e-03
  6.2987820e-04   9.6439366e-04
 -1.4617078e-03   9.4699231e-04
  1.8649662e-03   8.3071511e-04
 -4.1552191e-03   2.2026763e-04
 -2.8998023e-03   1.1333273e-03
 -1.9656133e-03   6.8320590e-04
  1.0899486e-03   1.0697098e-03
 -5.2921786e-03   8.0349966e-04
 -3.7563909e-03   9.8734186e-04
  2.2393467e-03   1.3826470e-03
  2.0417497e-03   6.3501735e-04
  1.4278479e-03   3.4514698e-04
  1.8167258e-03   8.7923661e-04
  2.0587554e-03   7.8311918e-04
  2.4944637e-03   1.3705352e-03
  1.3327695e-03   6.8926916e-04
  1.2098340e-02   1.2897191e-04
 -8.3647640e-03   4.0893810e-04
  5.4616299e-03   1.1915145e-03
 -2.6487641e-04   9.5143873e-04
 -1.2197858e-03   7.2368549e-04
  2.5058768e-03   1.0773330e-03
  3.1345228e-03   6.0993974e-04
 -1.9937130e-03   1.6699606e-03
 -2.2654980e-03   1.3756440e-03
  3.2102985e-03   1.4588753e-03
  6.2483810e-03   5.6258793e-04
 -2.5766689e-01   4.2624780e-04
 -1.0338538e-02   1.4911308e-03
  8.4675208e-04   1.0048451e-03
  1.1500559e-03   1.1809866e-03
 -1.5733587e-03   6.9864647e-04
 -1.7865869e-03   9.2343165e-04
 -1.0882838e-03   4.0639043e-04
 -6.2624686e-03   9.5435599e-04
 -2.1202613e-03   1.2332713e-03
  8.7299466e-02   7.6198026e-05
  8.6599459e-05   9.4736787e-04
  3.6098592e-03   1.3680205e-03
 -7.8186125e-04   1.4667097e-03
 -2.5802306e-04   6.3425029e-04
  9.3810074e-03   1.3833585e-03
  1.2751518e-02   4.4834256e-04
  1.0883913e-02   6.5582735e-04
  3.8201716e-02   5.4838334e-04
  4.8091188e-02   3.5930559e-04
 -2.0097535e-02   3.8266025e-04
  8.4713486e-04   7.2131213e-04
 -3.4906170e-01   8.3712286e-05
 -5.7974023e-01   1.5264328e-04
  1.8539790e-03   1.4567906e-04
  2.7175054e-01   2.0538959e-04
  1.1109411e-03   5.6884869e-04
  1.0371349e-03   8.7911333e-04
 -1.2259433e-01   5.6866690e-04
 -1.3328831e-01   5.7240931e-04
 -1.9268913e-03   8.8369579e-04
 -1.1533305e-02   3.8711104e-04
 -1.2031935e-01   1.2989519e-03
  7.7921143e-03   7.8385987e-05
  5.0284723e-03   1.2377185e-03
 -1.0783426e-03   4.9603789e-04
  5.2950537e-01   7.0966198e-04
 -3.1827830e-02   1.2106266e-03
  1.8778659e-02   3.5445290e-04
  6.4074900e-03   3.5643458e-04
  1.2268632e-01   3.5336960e-04
 -1.8758899e-02   1.3542536e-03
 -9.6308745e-02   1.6194779e-03
 -5.9993085e-02   3.9625619e-04
  1.2083950e-02   1.4305188e-04
 -2.7651775e-03   2.6064101e-04
 -3.2921553e-01   1.7408542e-04
 -4.7323501e-04   2.1688700e-04
 -1.2811801e-02   8.2028715e-04
 -1.4114886e-02   9.0053678e-04
  1.3313673e-03   3.0934947e-04
  3.6123894e-02   2.3695664e-03
  8.8935792e-02   7.8246352e-04
  1.3652756e-03   1.0234291e-03
  5.9951597e-04   3.3231243e-04
 -1.7742059e-03   1.1930662e-03
  6.3867378e-03   9.4426674e-04
 -3.0909821e-03   1.7498570e-03
  2.9084191e-03   1.5737435e-03
 -5.4314048e-03   2.5362879e-04
 -1.0493109e-02   1.3889549e-03
  2.4239873e-03   1.0545921e-03
  1.3609606e-02   5.6403427e-04
  5.3774528e-03   4.1262523e-04
 -2.9867513e-03   7.5149466e-04
 -1.2630444e-03   9.3804661e-04
 -4.5242705e-03   4.5823556e-04
  6.2950347e-03   4.8120951e-04
  3.4025321e-03   6.6294317e-04
 -4.4906018e-03   4.7922577e-04
  2.2678126e-03   3.4002095e-04
 -2.2836842e-03   3.8782007e-04
  3.2454310e-03   5.4451695e-04
  2.5521923e-04   8.9678285e-04
  2.0193700e-03   7.5715256e-04
  3.8502796e-04   1.0093928e-03
  1.9744143e-03   1.6849446e-03
 -1.4523872e-03   5.6232768e-04
  5.4232813e-03   1.2464238e-03
 -3.3103749e-03   6.2232319e-04
 -6.2889419e-04   6.4988493e-04
 -4.4983911e-04   6.5991940e-04
  1.1162455e-04   9.3528745e-04
 -1.0589267e-03   7.4328127e-04
  2.0446260e-03   6.2409963e-04
  5.7668582e-04   1.3374066e-03
 -4.8309448e-03   6.1495980e-04
 -1.4978923e-03   2.9280208e-04
  1.5824955e-03   9.1786479e-04
  3.8283539e-03   5.8104686e-04
 -1.6826296e-03   3.2968403e-04
 -6.9695571e-04   8.9623412e-04
 -2.2988315e-03   2.9975161e-04
 -2.2866455e-04   1.4974510e-03
 -3.3656391e-03   1.4287145e-03
  5.9990273e-03   1.6459391e-03
  3.5725958e-03   1.3904391e-03
  3.0857117e-03   3.0409155e-04
 -4.4291820e-03   4.5524098e-04
  2.2811303e-03   7.7093486e-04
 -1.8351668e-03   9.3945110e-04
 -8.9149838e-03   1.3067155e-03
  3.4508505e-03   8.6138386e-04
 -4.0457221e-03   5.9395627e-04
  1.1258337e-03   1.0835874e-03
  2.8076506e-04   7.2622357e-04
  1.1088786e-03   6.4325595e-04
 -1.5679311e-03   1.3989507e-03
 -9.9473149e-03   1.1199705e-04
  2.2280677e-03   8.8175701e-04
  1.7250776e-01   3.9355710e-04
  7.2766687e-03   6.5629568e-04
 -4.1444446e-03   2.7558443e-04
  2.5992486e-01   1.0495352e-04
 -6.4374981e-03   8.2617026e-04
 -2.5390431e-03   5.3612393e-04
  2.3032455e-03   1.7931320e-03
  1.5323054e-03   1.0483701e-03
  1.1170504e-03   7.8473863e-04