 -4.0511477e-01   5.9021768e-05
 -3.8006008e-01   1.1136749e-04
 -1.0191208e-01   8.6069398e-05
 -8.1091568e-02   1.3056316e-05
 -1.1551685e+00   7.2483650e-05
 -1.7088267e-01   7.5579752e-05
  1.0544583e+00   9.3295013e-05
 -3.8826209e-01   2.1384340e-05
 -1.7721798e-02   1.0796924e-04
  2.9016703e-01   2.3182300e-04
 -5.9700233e-01   5.0234063e-05
 -1.6773519e-03   3.6316298e-04
  3.2774709e-02   7.1124989e-04
 -1.1753243e-03   2.3476769e-04
 -5.7917416e-02   6.8088018e-05
  4.2020041e-01   1.4844880e-04
 -8.0797909e-04   2.0174679e-04
 -1.0467263e+00   7.4000582e-06
 -3.2501385e-02   8.3517960e-05
 -8.9987934e-02   2.7193272e-04
 -3.5641325e-01   5.2594645e-05
 -4.1004711e-01   6.0422535e-05
  3.0276614e-01   9.2900576e-05
  1.6056138e-01   4.8892194e-05
 -4.7038555e-01   8.3914994e-05
 -5.0572836e-01   6.2220875e-04
 -2.2169910e-02   2.9511805e-04
  7.1388155e-02   8.6075255e-05
 -2.2911558e-02   1.3499624e-04
 -3.7579209e-01   8.8971858e-05
 -6.1015904e-01   1.1439692e-04
 -2.6160541e-01   3.9174283e-04
 -1.9104272e-01   7.0442271e-04
 -3.0337760e-01   1.8780176e-04
 -7.2652318e-02   2.9149110e-04
 -2.7438624e-02   8.7479559e-05
  1.1599749e-01   2.6375870e-04
  7.2156988e-02   2.2765014e-03
 -1.4535825e-01   9.2755764e-04
 -3.5111679e-04   3.0446608e-04
 -1.8394355e-01   7.9812127e-04
 -2.7201373e-02   1.9614618e-04
 -8.7342046e-02   1.2595888e-04
  2.8283524e-04   2.4538027e-04
  2.5764902e-03   4.7448196e-04
  4.0883780e-03   6.5919053e-04
 -3.3820770e-04   6.7488733e-04
  3.7243575e-04   5.0923094e-04
  1.3210665e-03   3.3726392e-04
 -1.1886652e-03   1.8840542e-04
  1.9989701e-03   4.2523912e-04
 -3.4520100e-04   2.7625507e-04
 -1.1756314e-03   5.3146819e-04
 -3.3586682e-03   5.5056595e-04
 -8.1352249e-05   8.5122907e-04
 -4.2101784e-04   7.0803985e-04
  1.9047704e-03   8.3539437e-04
  1.3514606e-03   5.3854333e-04
 -2.0024616e-04   1.8226093e-04
  4.7350867e-04   4.7085679e-04
 -1.6814702e-03   4.2421345e-04
  1.6581864e-03   4.1979851e-04
  1.6327772e-03   6.4411137e-04
 -1.6458613e-04   4.3863681e-04
  7.5054057e-05   4.6223370e-04
  3.7379065e-04   3.9211195e-04
  2.0970765e-04   6.9016486e-04
 -1.0690026e-03   2.5480310e-04
 -1.2240785e-03   7.4212893e-04
 -6.0613840e-03   3.7165702e-04
 -6.7599048e-04   4.2224952e-04
  5.7219266e-04   4.9769174e-04
 -9.6684258e-04   4.2303911e-04
 -7.9142104e-04   2.0865611e-04
  4.0358320e-04   3.7764164e-04
 -1.5441448e-03   2.7938475e-04
 -5.0122448e-04   3.7070125e-04
  3.8756820e-04   5.1433448e-04
 -7.8127412e-03   6.0661905e-04
 -5.9261266e-03   1.6446273e-04
 -6.1253604e-04   8.3032076e-04
 -5.6505878e-04   4.5303072e-04
 -1.9216585e-04   5.0670857e-04
 -8.8751415e-04   3.1698728e-04
  9.0714137e-04   4.8035922e-04
 -2.1668388e-02   5.2933185e-05
  1.6003686e-03   5.7932752e-04
  1.9796691e-03   4.7725390e-04
  1.0895953e-01   1.1296658e-04
  1.8502074e+00   7.4387557e-05
  2.9831390e+00   4.3423348e-05
 -1.0314322e+00   5.3305906e-05
  2.4547653e+00   3.7749589e-05
  1.5306104e+00   1.0908188e-04
 -1.3842338e-01   1.3164300e-04
 -1.4162477e+00   6.6103244e-06
  2.6981547e-01   1.3891183e-04
 -6.8041945e-01   1.2428866e-03
 -5.2229905e-01   7.9111138e-04
  1.2824485e-01   3.9603107e-04
  1.2573643e-01   9.3441003e-04
 -1.4105561e+00   6.2850048e-04
  3.4684578e-01   4.3305423e-04
  1.0472419e+00   1.6581904e-04
 -6.0033464e-01   2.3822417e-04
 -8.3085537e-02   2.0922873e-04
 -1.7955270e-01   8.4884996e-05
  4.1726124e-01   5.4558704e-04
  1.3999085e+00   8.4794978e-05
  7.8509402e-01   1.3633279e-04
 -3.7192121e-01   5.2056883e-05
 -7.3604208e-01   1.1384326e-04
  4.0509439e-01   2.4526034e-04
  2.0816305e-01   1.9611395e-03
  2.9461768e-01   1.2039547e-04
  3.4127861e-02   9.4765237e-05
  3.7142900e-01   7.2565526e-05
 -1.0239059e-01   1.6703132e-04
  1.0824886e-02   1.4118945e-04
  4.6014290e-02   7.8184567e-05
 -9.8393001e-02   1.1679095e-03
  5.3240001e-02   4.0821909e-04
  5.1268804e-01   1.8494560e-04
  2.3704313e-01   7.0449110e-04
 -2.7398556e-01   5.0499832e-04
 -2.7534785e-05   7.2466431e-04
  1.0620405e-03   5.9293583e-04
  4.2966247e-02   1.0071084e-03
 -1.5113513e-03   7.9546549e-04
 -3.9077252e-01   4.3058483e-04
 -3.4044536e-03   8.0651423e-04
  2.9777733e-04   2.9793291e-04
 -1.4741672e-03   5.4696487e-04
 -1.2145720e-03   1.9979849e-04
  2.5193503e-03   5.6698051e-04
 -4.2537246e-03   4.2579541e-04
  2.9710000e-03   4.7817020e-04
 -9.2581927e-04   5.0275464e-04
  1.0039252e-03   3.2842686e-04
  1.2296133e-03   7.7025290e-04
  7.5512036e-04   2.2079775e-04
  9.9713635e-04   3.7215566e-04
  4.9944292e-04   5.6595157e-04
  1.9057249e-04   9.8300597e-04
  5.8400049e-04   4.7530458e-04
 -7.0294359e-04   3.5062962e-04
  6.2704261e-05   9.0924598e-04
 -2.6331302e-03   1.3315392e-04
  4.2631433e-05   6.4936717e-04
  1.1695912e-03   6.1321951e-04
 -6.0890027e-04   2.5094138e-04
 -2.6740815e-04   5.9658271e-04
 -1.6417645e-05   4.5473801e-04
 -2.1295727e-03   3.1436022e-04
 -8.4404950e-04   2.2956866e-04
 -6.5708742e-04   5.9127121e-04
 -1.7800701e-03   1.0408923e-03
  2.2865592e-03   1.1862984e-03
  5.2010320e-04   4.3328153e-04
 -1.0323283e-03   2.2475523e-04
 -2.0535924e-03   2.7536473e-04
 -8.3071020e-05   6.9650001e-04
 -1.8872236e-04   4.5656980e-04
  1.6009926e-03   8.5419061e-04
  9.6437364e-04   5.8430294e-04
 -1.5270549e-03   9.4397686e-04
 -1.6950576e-03   7.4991508e-04
 -5.2715302e-04   6.8445923e-04
  6.6415936e-04   5.0477992e-04
 -1.2877648e-03   6.6223904e-04
 -3.3732399e-04   4.7878519e-04
 -2.4879661e-03   6.4711744e-04
 -1.5604222e-03   8.1568968e-04
 -2.0011954e-03   5.3995504e-04
 -1.9984462e-03   5.0948223e-04
  7.1985758e-04   5.1982532e-04
 -6.2442600e-04   4.8812051e-04
 -1.6446970e-03   8.7516906e-04
 -1.6433117e-04   4.2075527e-04
 -2.9119751e-01   1.1239152e-04
  8.2789719e-02   1.8888431e-04
  7.1855793e-05   5.5943540e-04
  1.7673317e-02   1.2541280e-04
 -6.5926298e-02   3.4120391e-04
  8.0735754e-04   5.8828184e-04
  1.9223241e-03   1.1178310e-03
 -1.8889030e-03   1.9077669e-04
 -3.5119918e-04   5.8088743e-04
  9.7628927e-04   3.4155991e-04
 -8.5603409e-05   2.7498143e-04
  4.2659880e-04   4.7279301e-04
  1.5005982e-03   6.0440070e-04
  1.6230483e-04   2.5944729e-04
  3.0602135e-03   5.2209292e-04
  4.9937941e-04   3.9968453e-04
  4.7180103e-04   7.1553717e-04
  2.1486522e-03   6.2283123e-04
 -4.6312614e-04   4.1137575e-04
 -2.2546814e-03   2.0748671e-04
 -3.8541127e-03   4.5454115e-04
 -2.4223637e-03   4.9405103e-04
  8.5899903e-04   4.9081934e-04
 -2.9525461e-03   1.9378577e-04
  5.0783833e-04   3.6680076e-04
  1.0047219e-03   2.5419990e-04
 -5.6128623e-04   5.0560816e-04
 -1.2291920e-03   3.5051556e-04
 -9.7682653e-04   5.1873864e-04
  3.7679292e-04   3.4333629e-04
 -2.0278366e-03   2.8409495e-04
 -1.3885628e-04   2.7772636e-04
  7.6590589e-04   1.2456416e-04
 -3.2293438e-03   2.5915317e-04
 -3.3020363e-03   4.9000955e-04
 -4.9079279e-04   3.4486718e-04
  2.8988714e-03   2.7867462e-04
  4.7131471e-04   2.2444120e-04
 -4.5443850e-04   3.4898720e-04
 -2.6792428e-01   4.2481730e-05
  4.0836451e-03   6.6577556e-04
 -6.5429020e-04   1.1547774e-04
  9.0359265e-01   1.6788540e-04
 -5.2229095e-01   2.1184175e-04
  1.1958577e-01   3.5704368e-05
 -3.5684243e-01   4.7863749e-04
 -1.9502646e-01   5.9928419e-04
 -1.5807755e-01   2.8447932e-04
  1.6100062e+00   9.6920194e-05
  1.7158580e-03   3.2944951e-04
  1.0639169e-02   2.5555433e-04
 -5.3775152e-03   9.8290516e-04
 -1.7254698e-03   3.6469818e-04
 -1.1742988e-05   1.4981573e-03
  1.8482335e-03   8.0079876e-04
  1.3889968e-03   5.8496709e-04
 -4.6990542e-03   3.5204669e-04
 -1.0983453e-03   7.8143482e-04
  1.3758427e-01   5.2706575e-05
  3.0554833e-03   7.3393987e-04
 -1.0964734e-02   3.8364585e-04
 -2.6153761e-01   1.6785499e-04
 -4.2159688e-03   1.4038155e-04
 -1.3787070e-01   9.2370017e-04
 -2.5937143e-01   6.1397639e-04
 -3.6662912e-01   7.1648241e-04
  1.3102680e-03   1.3376391e-03
 -1.1226870e-01   7.6155527e-04
 -2.3831633e-01   2.0627346e-04
 -1.1130064e+00   2.1527873e-04
 -1.3993460e-03   2.7945550e-04
  1.9320649e-03   7.3366781e-04
  1.2687149e-03   5.2078499e-04
 -2.0334970e-03   5.0558086e-04
  1.5295766e-03   5.0123315e-04
  1.8336452e-03   3.8602235e-04
 -2.5246665e-01   1.3914420e-03
 -4.5850361e-06   4.7655468e-04
  2.1340349e-03   2.5929933e-04
 -1.1500312e-03   9.4344653e-04
 -1.6692132e-03   4.6905165e-04
 -1.8524669e-02   4.2878051e-04
 -6.4670347e-04   2.7517404e-04
 -6.9073118e-02   2.0326234e-03
 -1.3282995e-03   6.4222352e-04
  3.8379995e-04   1.4699425e-04
  3.0666308e-03   2.1236442e-04
  4.2366829e-02   3.6541268e-04
  1.6391543e-05   9.5811585e-05
  2.3804517e-01   1.2790736e-04
  1.2882525e-03   2.5869656e-04
 -2.2248384e-02   5.1844981e-05
 -8.4117450e-02   3.8032893e-05
 -1.7963818e-03   4.6852545e-04
 -6.4586289e-04   6.2408455e-04
  1.3642648e-01   8.9929719e-04
  1.0555893e-03   8.7076228e-04
 -2.2637399e-02   6.4891501e-04
 -4.0165940e-03   4.3350802e-04
  3.5828816e-05   5.3204782e-04
  2.4535401e-01   1.8048300e-04
  2.4239462e-02   2.1473116e-04
  1.0549781e-01   3.0034038e-04
 -3.5527628e-04   2.7503388e-04
  3.2406859e-03   5.4106844e-04
  1.3037707e-01   1.4606652e-04
  2.8846883e-03   1.4607862e-04
  7.2877581e-04   1.5649760e-04
  8.7192236e-03   1.2184756e-04
  1.2516621e-01   4.6420733e-05
  1.8215770e-02   1.4141001e-03
 -1.1992384e-02   2.6272450e-05
 -1.8549355e-02   1.0911934e-04
  3.1746674e-02   1.6999606e-04
  3.0080095e-04   1.2741299e-04
 -3.3934009e-03   4.0411059e-04
  2.0509184e-04   4.7933962e-04
  1.9780220e-03   5.0620991e-04
  3.3948454e-04   3.4511820e-04
  1.1814596e-03   2.6125737e-04
  2.5442364e-02   4.8493335e-04
 -9.5701829e-04   2.1240757e-04
  1.0684841e-04   6.9311814e-04
 -1.2342954e-03   5.0117285e-04
  2.0676178e-03   4.7083205e-04
  3.4781403e-03   3.8125357e-04
 -2.8509661e-03   1.7879813e-04
  2.3500889e-03   2.4952905e-04
  2.3386269e-03   7.3251699e-04
  2.3296650e-03   3.1238864e-04
  8.9204434e-05   5.2188797e-04
 -1.8947526e-03   3.0281086e-04
  8.2140183e-01   6.6771905e-04
 -1.0767016e+00   2.0042167e-04
  2.0990742e-02   1.1951062e-04
  8.2712009e-04   3.7656989e-04
  1.1675783e+00   1.4034219e-05
 -4.0638418e-04   5.0080370e-04
 -1.4306543e-03   1.0441917e-03
  1.5794055e-03   1.1959689e-04
 -8.0198428e-04   6.0079270e-04
  5.6961714e-04   5.1142497e-04
 -6.0250345e-03   4.6685178e-04
 -2.7715266e-03   5.4767373e-04
  2.0656195e-03   7.4445660e-04
  2.3139517e-05   2.6896861e-04
  2.0351319e-03   5.2271149e-04
 -1.2798598e-03   5.4305588e-04
  1.5787339e-03   4.9435918e-04
 -1.2928357e-04   1.4195456e-04
 -5.9768241e-03   4.9869675e-04
 -1.3270573e-04   6.8893260e-04
 -6.0553517e-04   4.4058362e-04
 -1.2446012e-03   3.2073903e-04
  2.3219537e-04   3.8489193e-04
 -2.4858592e-03   1.0364192e-03
  5.4678176e-02   8.8311193e-05
  6.2108273e-04   6.3608377e-04
  5.6036681e-02   3.2947454e-04
 -3.8227282e-04   7.2312274e-04
 -3.5407031e-03   4.6788240e-04
 -1.3317592e-03   4.6755216e-04
  6.2781933e-04   8.1673636e-05
 -1.2222705e-03   8.8326039e-04
 -9.6693257e-05   6.1951810e-04
 -8.2573304e-03   3.5855809e-04
  1.0480310e-03   5.9176999e-04
  1.7359575e-03   4.5817642e-04
 -4.0346576e-04   2.0684034e-04
 -3.1794928e-04   4.3138664e-04
 -8.7810762e-04   4.6383755e-04
 -1.3937958e-03   4.5537649e-04
  2.8255593e-03   1.7992096e-04
 -4.8811883e-03   2.3576857e-04
 -7.9939782e-04   8.1197701e-05
 -6.2108843e-04   1.9065905e-04
 -4.1321255e-06   2.8595404e-04
  5.0614533e-05   1.3481577e-04
  1.2955186e-03   2.0980681e-04
 -4.9512312e-03   2.5280367e-04
 -2.9272872e-03   2.2319793e-04
  4.8848853e-04   8.9947454e-05
  3.3812245e-04   4.6912776e-04
  1.7500194e-03   5.7293643e-04
  1.3453453e-03   5.2926230e-04
  2.7712141e-04   4.4630471e-04
  5.3492264e-04   2.8308044e-04
 -5.4610166e-04   3.5728051e-04
  1.9146635e-03   3.8630716e-04
 -3.5608315e-04   4.8499127e-04
 -9.7311183e-04   2.9518190e-04
  3.2295699e-03   3.1963186e-04
 -1.1973202e-03   6.8886590e-04
 -1.4653436e-03   5.8288791e-04
  1.2463789e-03   3.9093412e-04
 -4.4047236e-03   5.0128507e-04
  9.1383449e-04   4.5467334e-04
  8.2385637e-02   9.0840826e-05
  1.4580456e-03   6.6544092e-04
 -1.3687613e-03   5.3566362e-04
 -5.3277951e-02   6.3322637e-05
  1.9842957e-03   4.5183965e-04
 -6.8361661e-04   3.3407999e-04
  4.0442831e-04   3.6657311e-04
  6.3454412e-04   3.9461025e-04
 -1.6872869e-03   3.2534788e-04
 -6.4794224e-04   5.4815813e-04
  1.3303003e-04   5.1254738e-04
  1.1713810e-03   4.6632419e-04
 -4.0399716e-03   3.9589620e-04
  7.3347189e-03   4.2000995e-04
  2.3612608e-03   6.9689139e-04
 -6.5840286e-04   3.0098646e-04
  7.9906848e-04   4.9141305e-04
  3.2369053e-06   3.2832881e-04
  2.6523902e-03   5.3713046e-04
 -9.0016105e-04   3.4002500e-04
  3.0038679e-02   1.0956603e-04
  2.1621820e-01   6.3178554e-04
  1.1126117e-01   5.2380119e-04
 -1.3165432e-01   7.9398094e-05
  7.3934428e-02   1.5709209e-04
  3.4530209e-03   4.4910444e-04
  1.2207485e-01   2.1206608e-04
 -3.7877895e-02   5.7595586e-05
  3.8369975e-04   2.5363572e-04
 -5.6579986e-05   5.3282542e-04
  6.1731302e-04   7.9664966e-04
 -7.8451226e-04   6.9918169e-04
 -1.5507377e-04   3.3953431e-04
  1.6476552e-03   5.5151526e-04
  1.5578920e-01   8.0493599e-05
  5.4166227e-04   4.0093166e-04
  2.2888929e-03   5.0927105e-04
  7.7632733e-04   5.1678746e-04
 -2.9472008e-03   5.2656810e-04
  7.4723235e-04   2.7300819e-04
  9.0771064e-02   2.4136434e-04
 -7.7941763e-04   2.8245334e-04
  4.2995816e-04   7.8015192e-04
  1.9347699e-01   7.1014825e-04
  4.6418765e-01   2.5550099e-04
 -3.2225822e-03   8.2264823e-04
 -1.3711730e-03   4.7692459e-04
  1.7153536e-03   4.6363453e-04
  1.1833562e-04   4.4015842e-04
  2.6118329e-03   5.3123274e-04
 -8.9419272e-04   5.4220459e-04
  1.7640184e-03   7.3269336e-04
  4.1192481e-03   2.5649639e-04
 -3.3069602e-03   3.1943910e-04
  6.4424035e-04   2.7891845e-04
  4.3085353e-03   4.7173293e-04
  8.7648135e-04   4.2090859e-04
 -5.7330477e-04   8.2980399e-04
 -1.4289623e-04   4.9324398e-04
  9.7553362e-04   4.5981590e-04
  2.2304151e-03   8.0256315e-04
 -1.5609426e-04   1.0239271e-03
 -3.0082223e-04   4.9584580e-04
  1.2595173e-03   6.6149869e-04
 -8.0438960e-01   1.4821030e-04
 -8.1091714e-01   1.4096221e-04
  9.8512542e-01   1.5819972e-04
  8.8174134e-01   4.9451253e-05
 -1.5437806e-01   2.1639367e-04
  2.4549073e-01   1.1947554e-04
 -1.4458381e+00   9.6942567e-05
 -3.6493704e-01   2.7749824e-05
 -5.3019679e-01   1.5443731e-04
  1.0937573e-03   7.1827206e-04
  4.2335296e-01   5.5561977e-04
 -2.8933329e-04   3.0740767e-04
 -3.8894808e-03   5.4158579e-04
  3.9233258e-01   4.4396616e-04
  1.3250078e-03   3.2188691e-04
  4.7823819e-03   1.1680542e-04
  1.0942419e+00   1.5250433e-04
  4.0442401e-01   4.8753852e-04
 -1.5805864e-01   9.0339265e-05
  5.6332085e-02   3.7644504e-04
 -4.3288592e-01   4.8933918e-05
 -3.8132775e-01   1.1207471e-04
  2.4852149e-01   3.5694480e-05
  1.1010120e+00   1.9350418e-04
  8.6475503e-01   2.3717123e-04
  2.8769735e-01   6.1876752e-04
 -1.1749030e-03   3.6000731e-04
 -2.2885878e+00   6.3237982e-05
  7.7089900e-01   2.9729211e-04
  3.9741305e-01   2.0502438e-04
 -1.3256082e-01   6.2345562e-04
  2.8433502e-01   6.4091093e-04
 -4.3792650e-05   1.4115114e-03
 -2.5300743e-04   4.4430420e-04
 -3.8650116e-01   1.7781815e-04
  5.1304233e-01   4.5332185e-04
 -1.3318394e-03   2.4748026e-04
 -5.9584496e-03   9.6669636e-04
  1.8222778e-03   7.8234711e-04
 -2.3929855e-04   4.1217782e-04
  1.1827035e-03   5.9625076e-04
 -8.9059136e-04   3.8461710e-04
  5.0564512e-04   6.1801891e-04
  1.7557339e-03   4.6708007e-04
 -5.1914784e-04   6.7865668e-04
 -4.6685585e-03   5.4414809e-04
  9.3037009e-02   2.8203588e-04
 -1.9702673e-01   2.0128072e-04
  1.5761439e-03   8.0565216e-05
  1.0064957e-04   5.6490395e-04
 -3.9594283e-04   1.5335562e-04
  8.0188531e-01   4.8599326e-05
 -4.7845149e-04   1.7909129e-04
 -1.7965285e-04   3.1511707e-04
  3.0043427e-04   9.3494751e-04
  9.9257745e-02   2.1076333e-04
 -1.4437173e-03   3.3117109e-04
  7.2507130e-04   5.1369367e-04
 -4.3831870e-04   4.1849585e-04
  7.2593644e-04   5.1114900e-04
  9.4500696e-04   6.2961824e-04
  5.1303715e-03   2.2770306e-04
 -3.9190967e-03   4.3039277e-04
 -3.1399885e-03   5.9653627e-04
  2.3660148e-03   1.0160664e-04
  1.0863193e-03   5.8338250e-04
 -2.0952331e-04   1.7375848e-04
  3.2381871e-05   2.4679766e-04
 -2.7830619e-03   6.2123506e-04
  1.4017252e-03   8.4401929e-04
  7.3649298e-04   1.7631678e-04
  5.7595217e-04   7.6599733e-04
  3.7640140e-03   3.3818901e-04
  8.6712383e-04   2.7760206e-04
  1.3947035e-03   6.1239244e-04
  7.5933628e-04   4.8173987e-04
  8.7564334e-04   3.0330647e-04
 -1.5105138e-03   4.9200130e-04
 -8.0537423e-04   5.4253911e-04
  1.6468198e-03   4.2031609e-04
  5.0865655e-04   3.1393513e-04
  1.4484453e-04   5.7247089e-04
 -3.8048369e-04   5.5867841e-04
  9.9167833e-04   5.6279759e-04
 -7.0832187e-04   5.8011222e-04
 -6.7718260e-02   5.5676541e-05
  3.1025666e-03   4.3982951e-04
  1.7712969e-02   7.7880075e-05
 -3.1822566e-03   3.6075720e-04
 -1.0191015e-01   2.4381700e-04
 -5.7045650e-01   2.6058484e-04
  2.4642125e-01   6.4605447e-05
 -2.3126656e-03   1.4299514e-04
 -1.1394920e-01   1.9258009e-04
  8.9134433e-04   2.3743167e-05
 -8.5153677e-02   1.5347384e-04
  5.3789079e-01   3.2335930e-04
 -3.7246407e-04   7.4803823e-04
 -4.2348607e-03   2.3766511e-04
  1.2757526e-02   1.6645833e-04
  1.5315910e-04   5.4788945e-04
 -1.7069522e-01   6.0527876e-04
  8.2919588e-03   9.2271068e-05
  1.9667199e-02   3.8486327e-05
 -7.4497677e-02   7.6839415e-04
  6.0991555e-01   1.3014881e-04
  8.2607189e-04   2.9618514e-04
 -1.0969001e-02   4.9578026e-04
  4.6212748e-02   1.8257201e-04
 -1.2264952e-01   2.1455577e-04
  1.1447412e-03   2.9922221e-04
 -4.2452901e-03   1.2492212e-04
 -1.9672003e-02   3.4154189e-04
 -1.0641884e-01   1.2806202e-03
 -4.3075869e-04   4.0474805e-04
 -1.0441113e-01   3.9830993e-05
 -3.5555536e-01   1.8611777e-04
  1.5936445e-03   2.3685556e-04
  1.3827089e-02   3.1455341e-04
 -1.9335054e-03   4.6347108e-04
 -6.9678905e-03   6.7488663e-04
  1.3032309e-03   3.1297933e-04
  3.7647446e-04   2.7259911e-04
 -3.0211823e-02   2.1990901e-04
 -3.5744521e-04   2.1344269e-04
 -4.4428254e-04   5.2167877e-04
 -9.9022838e-04   5.4142351e-04
  1.5183121e-03   9.3656353e-04
  1.3842911e-03   1.0187140e-03
 -5.9104594e-04   6.0179306e-04
 -1.2443062e-03   4.8108576e-04
 -5.0948845e-04   5.5504747e-04
  3.5703025e-04   2.1335547e-04
 -4.9856509e-04   4.6531035e-04
  1.1329303e-03   3.1282360e-04
 -2.7020675e-01   2.1111401e-04
 -5.7434402e-03   2.5255798e-04
 -3.2425802e-02   2.5156152e-04
  3.8672116e-01   2.0031624e-04
 -8.0714382e-02   5.2161711e-05
  4.2210231e-03   3.1968910e-04
  2.0576841e-05   1.9835500e-04
 -6.5112673e-02   3.1413732e-04
 -3.2984370e-03   7.6486386e-04
 -1.3563197e-04   5.0964195e-04
  6.1102270e-04   1.0243570e-03
 -1.7059410e-03   6.2288844e-04
 -6.2415772e-03   4.2034313e-04
 -3.7937427e-03   2.2453745e-04
 -4.8004780e-03   2.6157990e-04
  1.6390767e-03   3.0933070e-04
  2.7298287e-04   4.8319530e-04
 -5.6813594e-02   1.3296542e-04
 -2.0732651e-03   4.1080901e-04
  7.1598240e-04   4.4144472e-04
 -2.6742136e-03   5.5161584e-04
 -1.2795639e-01   3.3636109e-04
  8.2665205e-04   4.3203309e-04
  1.1626751e-03   5.2683993e-04
 -6.0698205e-01   2.9418911e-04
 -2.4502076e-02   3.2143053e-04
  5.5663247e-04   4.0382929e-05
 -1.2926684e-03   5.6612439e-04
 -2.3863981e-03   4.6787792e-04
  2.1121532e-03   6.5970828e-04
  3.8260787e-03   6.6782738e-04
 -8.6126995e-05   3.8109839e-04
 -5.2227471e-03   8.0056500e-04
 -1.1824124e-02   6.9164089e-05
  3.4023335e-03   7.2317600e-04
  5.9301936e-05   4.7279269e-04
 -2.3826058e-03   9.1225072e-04
 -1.2627572e-03   6.2121794e-04
 -1.3289513e-03   4.2381574e-04
  5.2818559e-05   2.4042928e-04
 -2.1871622e-03   3.6447690e-04
 -3.0058292e-03   2.9616265e-04
  3.5235079e-03   7.4655790e-04
 -5.4979231e-04   2.9093761e-04
 -1.8031363e-04   5.0345750e-04
 -3.1255788e-04   6.7896571e-04
 -2.2582151e-03   4.6595803e-04
 -3.0281185e-03   3.9435830e-04
 -2.2282093e-03   3.2644728e-04
 -1.3827985e-03   3.2732068e-04
  6.7850546e-04   6.7828555e-04
 -2.9010610e-03   7.1558217e-04
 -2.6352601e-03   3.4675314e-04
 -2.5846311e-03   3.1212516e-04
  5.2756885e-05   5.0541147e-04
  4.1658059e-04   4.9933360e-04
  1.2115476e-03   6.3458231e-04
  1.0078492e-03   5.5992400e-04
 -3.3256656e-03   4.5202224e-04
 -7.6870911e-04   5.8735063e-04
  4.0816463e-05   7.8335364e-04
 -7.5585570e-04   4.2415262e-04
 -2.1327508e-03   7.3181605e-04
  9.2421198e-04   2.7706102e-04
  1.0825252e-03   2.5210663e-04
  2.5627057e-03   4.7802043e-04
 -3.4568538e-03   3.1102353e-04
 -1.6991608e-03   5.4648740e-04
 -4.9526691e-03   7.9042575e-04
  1.2837123e-04   4.4532234e-04
  2.7178098e-03   5.4415554e-04
  2.1825391e-03   4.7910764e-04
  9.4250264e-04   6.0005009e-04
  8.5382313e-03   1.4101117e-04
 -1.4931423e-04   4.7836060e-04
  1.9902350e-04   5.1580276e-04
 -7.9251436e-04   3.1503435e-04
  1.1348535e-03   4.7433260e-04
  8.1436726e-04   2.2069167e-04
 -1.6324852e-03   4.9358461e-04
 -2.2315790e-03   2.7257649e-04
  1.9328264e-04   5.8506610e-04
  3.4501258e-04   4.1228195e-04
 -1.5886283e-03   4.2146648e-04
  6.9023966e-04   3.7464793e-04
  3.9456479e-02   1.5014596e-04
  8.2895794e-04   4.3481193e-04
 -2.3511446e-03   5.2831386e-04
  7.3485525e-04   2.7025142e-04
 -1.2355200e-03   8.3834713e-04
 -1.9443556e-03   4.8229875e-04
  9.5255405e-04   2.0082520e-04
 -5.6872505e-01   5.9865171e-04
  5.9246961e-03   5.3551642e-04
  5.2405649e-04   3.9011013e-04
 -4.0466287e-03   7.3687098e-04
 -4.2993827e-03   1.0115361e-03
  3.8914045e-04   4.4200892e-04
  2.9247634e-03   1.9399612e-04
  1.0320854e-03   4.2281928e-04
  1.6039674e-04   2.4914645e-04
 -1.7173582e-03   7.4608321e-04
  1.1213946e-04   3.7711457e-04
 -4.3492706e-04   3.4089887e-04
 -1.5673439e-03   5.0679257e-04
  1.3489620e-03   4.5168991e-04
  1.6794822e-03   1.0085775e-03
 -7.3799043e-04   3.9028621e-04
 -7.0730527e-04   5.1319430e-04
 -1.6202790e-03   6.0840003e-04
 -2.2559394e-03   5.4597959e-04
 -4.2439101e-04   6.8750506e-04
  2.1815348e-04   3.5969325e-04
 -5.3101045e-04   2.8669072e-04
  2.7990844e-03   2.2085063e-04
 -5.2195297e-05   3.2416268e-04
 -4.2549719e-04   3.8231025e-04
 -1.8589200e-03   8.8895136e-04
 -1.4914903e-04   6.0854485e-04
 -6.8842602e-04   2.3029136e-04
 -1.2857601e-03   9.4416132e-04
 -4.6209423e-03   1.1450425e-03
  1.9364683e-03   5.1297829e-04
  5.8316287e-05   1.1325139e-03
 -4.1211029e-03   7.1679323e-04
  8.4869965e-04   2.5906283e-04
 -3.8078940e-04   5.3499247e-05
 -5.0934679e-03   9.4878150e-04
  3.2576045e-03   3.0159228e-04
 -3.4667639e-04   5.4795208e-04
 -4.0176327e-04   9.0647215e-04
  5.4534595e-04   3.1691077e-04
  3.1660427e-04   2.4306279e-04
  4.0465876e-02   8.8912937e-05
 -3.5170291e-03   2.7919741e-04
  1.5169737e-04   5.4624444e-04
 -1.3832344e-03   4.1536099e-04
 -8.4674323e-04   4.0597480e-04
 -5.0871941e-04   6.2000722e-04
  3.5609097e-05   3.0372824e-04
  5.4626563e-04   2.7335453e-04
  1.6508278e-03   5.0822517e-04
 -1.9018605e-03   7.0242572e-04
  1.1724179e-03   6.8363501e-04
  1.2023248e-03   2.7909371e-04
  1.5517964e-03   7.1814901e-04
 -1.7717215e-03   1.3192999e-04
 -4.4066380e-04   7.1795279e-04
  3.6603783e-04   3.5301939e-04
  5.8435085e-03   1.2131385e-04
 -7.7798287e-04   7.2204939e-04
  2.5871214e-03   8.3125802e-04
 -5.2239452e-03   3.0602884e-04
  1.8780220e-03   2.5794475e-04
 -2.1568930e-04   4.4228719e-04
  2.2907255e-03   4.9279869e-04
 -5.2864180e-04   7.2424591e-04
  1.9797976e-03   1.1368917e-03
  1.3941806e-03   5.2131229e-04
  9.7321719e-04   3.3682963e-04
  7.9146810e-03   1.7676578e-04
 -2.6324796e-04   3.2700822e-04
 -1.1583526e-03   2.7799277e-04
  1.1134604e-03   6.0183497e-04
  1.2119262e-03   3.5207771e-04
 -3.0224799e-04   6.6018529e-04
  1.3184563e-05   2.3518814e-04
 -1.5995092e-03   2.5809035e-04
  6.0288777e-04   7.0630433e-04
 -3.1603361e-04   2.3559638e-04
 -1.4299103e-03   6.4375624e-04
 -2.3969595e-05   9.7731804e-04
  4.8839496e-03   9.1782823e-04
  1.2320007e-02   1.2439783e-04
 -4.1933104e-02   1.0848411e-04
  4.0147070e-02   7.4378513e-05
 -2.3249995e-02   2.8305873e-05
  6.4639464e-02   2.4669906e-04
  3.0170369e-01   1.6078202e-04
 -4.2950474e-03   1.1233582e-04
 -1.3542245e-01   7.2714916e-05
  2.2868020e-03   2.6046019e-04
 -3.6141880e-02   6.0167670e-04
  2.5664037e-01   2.1797791e-04
  2.2767957e-03   6.4634939e-04
 -8.7040059e-02   6.4228184e-04
  6.4782165e-02   3.6911658e-04
  9.4114570e-03   1.0734051e-04
  4.2044878e-01   1.0994675e-04
  5.0245237e-01   1.7297412e-04
  1.1723517e-01   8.2614868e-05
 -5.3710202e-03   3.7378786e-04
  7.8471027e-02   3.2084159e-04
  6.2095469e-01   8.8144589e-05
 -1.6433549e-01   1.5417323e-04
  9.5364405e-03   2.6327529e-04
  1.3048889e-01   5.9873812e-05
  4.9361533e-01   9.4104951e-05
  3.0815834e-01   7.6935074e-04
  1.7860733e-01   6.5495237e-04
 -5.2998912e-02   5.8600810e-05
  9.6417004e-03   5.7644840e-05
 -3.3721110e-01   9.5720643e-05
 -8.8025801e-02   3.0611994e-04
  2.1948202e-01   5.5832567e-04
  9.7901173e-02   6.2422862e-04
  1.7641425e-01   1.4613511e-04
 -7.8680217e-02   1.3127876e-04
  3.6940527e-01   2.9692889e-04
 -5.9258244e-03   7.4666663e-05
 -3.6988668e-02   8.6026982e-04
  8.9333378e-02   4.7284045e-04
  5.9750909e-04   5.9727032e-04
  1.4851128e-01   2.7055107e-03
  7.9501994e-02   6.7855371e-04
 -1.1731638e+00   2.1352593e-04
  3.0348038e-03   3.9899186e-04
 -1.8412030e-04   2.1194962e-04
  1.0549783e-03   5.7329272e-04
 -3.1972092e-03   4.9769256e-04
  3.2946232e-04   3.7384327e-04
  1.9061581e-04   2.9755404e-04
  5.8637909e-04   1.0153118e-03
  2.5082703e-03   3.3759401e-04
  2.2493776e-05   5.2330189e-04
 -3.8583903e-03   4.5318899e-04
  3.1225148e-03   5.6710525e-04
  1.2157590e-03   4.6454894e-04
 -3.3460294e-03   1.9001360e-04
 -6.1072421e-04   5.4966187e-04
 -3.8076425e-05   8.3401403e-04
  3.6895717e-04   1.3153459e-04
  2.7938659e-04   4.3514109e-04
  6.7390711e-04   4.2897431e-04
  3.9498368e-03   1.9367300e-04
 -7.3037227e-04   5.0522562e-04
  1.0231871e-03   3.0306377e-04
  4.1232677e-03   8.4507826e-04
 -3.4192277e-04   2.4149062e-04
 -2.4668789e-03   2.4462739e-04
  2.2511440e-03   4.4298818e-04
 -1.7183545e-04   5.2216800e-04
  4.3303939e-04   4.3924624e-04
 -1.0379761e-03   5.9549685e-04
  1.5085448e-05   2.8253580e-04
  1.4845335e-03   6.9802871e-04
  1.7439161e-06   4.9091829e-04
  1.7581711e-03   5.1968795e-04
 -6.9109036e-04   4.3673237e-04
  6.8599894e-04   6.2261603e-04
 -9.2531467e-04   6.1441620e-04
 -7.0007966e-04   6.0853205e-04
  1.2956636e-03   2.1274544e-04
  1.8638821e-03   5.7495560e-04
  1.1767258e-04   3.4709106e-04
  6.7510286e-05   2.1169633e-04
 -2.4955344e-01   1.4476691e-04
  7.9190353e-04   3.2606962e-04
  2.3069310e-03   4.9281842e-04
 -3.7500131e-04   2.7631375e-04
 -6.8401801e-04   2.8186452e-04
 -4.7216341e-01   6.3966465e-05
 -9.8258853e-01   2.2089482e-05
 -1.9901937e-01   3.5682759e-05
 -5.2398115e-01   1.3016665e-05
 -5.1924396e-01   7.4537995e-05
 -7.8729630e-01   5.3993666e-05
 -2.0296851e-01   6.2650783e-05
  1.5901826e-01   4.4474960e-05
  8.7049380e-02   1.6370702e-04
  5.7903683e-01   1.0122552e-03
 -9.1404891e-01   2.0740875e-04
 -1.4465885e-02   8.2410977e-04
  5.2874922e-03   4.4010344e-04
 -1.4010577e-01   6.4362663e-05
 -1.3558117e+00   1.0963277e-05
 -1.2712377e-01   2.0708219e-04
 -5.0109988e-01   4.0370942e-04
 -7.1382588e-01   4.1126626e-04
  7.9053605e-01   1.5565210e-04
  5.3722487e-04   4.9538264e-04
  9.9151713e-01   1.8587579e-04
 -9.6305877e-01   4.3187312e-05
 -4.9176928e-02   1.1734424e-04
  7.3225725e-01   1.5997962e-04
 -6.7054981e-01   1.2649345e-04
 -7.3171675e-01   4.4724441e-04
 -1.2363173e-01   1.5656291e-04
  4.2517540e-01   5.2863685e-05
 -1.3773463e+00   1.5065641e-04
 -2.5612971e-02   2.1663097e-04
  7.5252825e-01   2.2184676e-04
 -8.7457341e-01   2.5444766e-05
 -6.9013829e-03   4.7891386e-04
  2.6881818e-03   2.9111950e-04
  2.6977482e-01   1.7481139e-04
 -6.5745401e-01   1.9124472e-04
 -3.8810667e-01   5.8238872e-04
  8.1375845e-02   3.1010789e-04
 -4.0466957e-02   3.0829539e-04
 -3.3628475e-03   7.2400487e-04
 -9.8719910e-02   4.2361538e-03
  3.3065000e-01   1.0664980e-03
 -7.2593510e-01   5.0724880e-04
  4.4852284e-05   2.9434700e-04
  1.1971319e-03   3.3229077e-04
  2.8995695e-04   3.5894942e-04
 -1.8693025e-03   2.4313062e-04
 -3.0585643e-04   3.3861308e-04
 -6.8281952e-04   6.0010387e-04
 -1.3271696e-04   5.3874590e-04
 -4.9439550e-04   8.1556442e-04
 -2.0329999e-03   2.6070353e-04
  1.9361565e-04   3.4989332e-04
 -1.0817652e-03   5.4520671e-04
 -1.3421493e-03   5.4978236e-04
 -1.4793356e-03   4.5809147e-04
  2.5929369e-03   2.4084598e-04
  1.8603398e-03   4.1118643e-04
 -1.1154155e-02   2.6050344e-04
  2.6546109e-03   3.0473960e-04
  1.5427643e-03   3.9717762e-04
  9.5895603e-02   1.9068029e-04
 -4.9605541e-04   5.3147913e-04
 -6.7499728e-04   5.0241401e-04
  1.4002115e-03   4.8173076e-04
 -2.8020029e-05   3.0684244e-04
  5.3455442e-04   3.7692906e-04
  2.5259197e-04   9.4171881e-04
  1.5499993e-03   4.6919211e-04
 -1.8247759e-03   6.2111492e-04
  3.2993907e-04   2.9743425e-04
 -1.0442619e-03   3.6906541e-04
 -1.3150219e-04   2.4459726e-04
 -6.2005786e-04   2.4428885e-04
  4.1228899e-04   5.2143022e-04
 -7.9984602e-04   5.0412572e-04
  2.0973221e-03   9.1902050e-04
 -1.0415573e-03   2.9309705e-04
  1.5233976e-03   3.7629780e-04
  1.0729595e-03   4.0144267e-04
 -8.4920833e-04   2.9937149e-04
 -4.7821217e-04   3.7278351e-04
  3.4411759e-03   5.4556510e-04
  1.0146003e-03   4.2159291e-04
  2.7693259e-03   3.3214636e-04
 -1.1635510e-03   4.1682846e-04
 -2.8814480e-03   7.8952900e-04
  1.3745046e-03   4.2472046e-04
  3.1496161e-01   4.6086992e-04
 -6.7756027e-01   3.2942253e-04
 -1.5623246e+00   7.5075950e-05
 -3.4627849e-01   5.0974668e-05
 -4.7816780e-01   2.4939745e-04
  1.8822229e-01   1.2681384e-04
 -1.8115194e+00   7.8796344e-05
 -1.3441802e+00   1.9992840e-05
 -4.7663355e-01   3.6430793e-04
  4.2985694e-04   1.8849077e-04
 -9.8165981e-03   5.7583582e-04
 -2.6649402e-03   3.6088156e-04
 -7.1883894e-04   7.7063311e-04