  1.2230771e+00   1.5715531e-04
  5.3121024e-01   1.4052532e-03
  4.6947800e-02   4.6916184e-04
  3.1323466e-01   4.9304770e-04
  5.5177236e-01   5.3072156e-04
 -9.1646120e-02   1.9186473e-03
  9.7532982e-01   1.3626923e-04
  1.2790440e+00   8.4080634e-04
 -2.5773210e-02   1.9157217e-03
  2.1786408e-02   3.0238093e-03
  1.2325948e-02   2.2853033e-03
  4.1542486e-03   9.0129375e-03
 -5.3137247e-03   9.9196390e-04
  2.7504873e-02   2.2266384e-03
  6.5625515e-03   6.9139604e-03
 -7.7017471e-03   3.3296591e-03
 -5.0821918e-01   4.1500048e-04
  7.4514076e-03   2.5482429e-03
 -4.5725387e-03   4.4434792e-03
 -3.1661233e-01   3.2813139e-03
  1.5790531e-02   2.3051091e-03
 -1.1699564e-02   1.0516397e-03
 -5.5765204e-02   1.5434547e-03
  3.0621121e-02   1.3629639e-03
  1.2121646e-02   3.6910323e-03
 -1.8628884e-02   1.0488930e-03
  9.6927211e-02   2.8425406e-03
  1.9687787e-01   4.8038843e-03
 -6.6243694e-03   2.6741368e-03
  2.3965986e-01   2.0936057e-03
 -1.5556169e-01   1.0465039e-02
 -1.0516002e-02   3.2747299e-03
 -1.7599044e-02   5.5354643e-03
 -1.9661609e-02   3.4791543e-03
  1.2007369e-02   6.1242473e-03
  5.4405909e-04   3.5184678e-03
 -3.8765737e-01   2.1292359e-04
 -1.4862469e-01   6.3960231e-04
  6.5837512e-03   2.8975997e-03
  5.8502331e-03   3.1786924e-03
 -3.5847789e-03   6.6964389e-03
  1.5833532e-05   4.6872813e-03
 -2.3167327e-02   1.9851564e-03
 -1.1409493e-02   5.3056669e-03
  6.8608329e-02   5.8031519e-04
  1.8019567e-01   3.8282273e-04
  3.2305613e-02   1.6799044e-04
  3.9473981e-01   2.7002080e-04
 -6.5347955e-02   1.2714356e-03
 -4.2514241e-01   2.9577370e-04
  1.0362630e-01   2.1266587e-04
  7.1725595e-01   1.4100016e-04
 -1.1392204e-01   1.5951011e-03
 -8.3234794e-03   2.1599568e-03
  9.9211521e-02   2.9523100e-03
 -2.9398367e-01   2.2975982e-03
  6.4414211e-02   1.4419154e-04
 -8.8589385e-02   1.4841284e-03
 -5.7466079e-02   3.2818785e-03
 -1.1257653e-02   1.7961595e-03
  5.7471293e-01   1.2623219e-04
 -1.5601113e-01   3.2218385e-03
 -4.4101723e-02   1.6974666e-03
  1.4482655e-01   4.6902668e-04
 -1.1524244e-01   7.6198380e-04
 -1.9998704e-01   7.2418485e-04
 -1.4471835e-02   4.2130490e-04
  8.3537437e-02   3.1111811e-04
 -2.0301747e-01   2.1599641e-03
  3.5081346e-02   2.3108979e-03
  6.7735031e-02   1.2759125e-03
  2.1402384e-04   8.6677086e-04
 -6.1439648e-02   3.1896499e-03
 -1.4785911e-02   4.6168698e-04
 -1.6763650e-02   5.7117088e-04
  2.0190256e-02   3.2911273e-03
 -1.4054263e-02   1.6503417e-03
  4.9830489e-02   1.1693807e-03
 -2.6873863e-01   1.0575763e-03
 -1.2445856e-01   5.0183237e-03
  2.5514336e-02   7.0241431e-04
 -3.3967312e-02   1.6399537e-03
  1.6390609e-02   4.5882398e-03
  8.3137827e-04   2.4676956e-03
  6.3295509e-03   2.8207961e-03
  7.8692759e-04   1.3007057e-03
 -1.3606541e-02   2.1609368e-03
 -6.7010209e-02   9.8980765e-04
 -2.4301766e-01   3.8557997e-04
 -3.2513133e-01   1.2363259e-04
 -1.0322344e-01   3.7177690e-04
 -1.2313495e+00   2.7110791e-04
 -1.0792229e+00   2.5656793e-04
 -2.2428694e+00   7.6189573e-04
  1.6734225e+00   4.2183686e-04
  2.1650791e+00   1.7937188e-04
 -2.0562544e+00   1.2549947e-04
  1.7799355e+00   1.2281236e-03
 -5.5377853e-01   2.5789859e-03
 -1.1549358e-03   5.8673457e-03
  2.8869551e-02   1.0687438e-03
  1.0659660e+00   3.0090918e-03
 -4.7909413e-03   1.8383454e-03
  3.0335820e-01   6.4809145e-03
 -1.8079499e+00   7.1145245e-04
  5.3476620e-01   1.9741340e-03
  2.6982918e-02   3.7478798e-04
 -4.4857346e-02   1.9014998e-03
  1.2131314e-01   6.6324853e-04
  9.4383770e-01   1.4931172e-03
 -6.1240393e-01   3.0990897e-03
 -8.7294996e-02   5.1689614e-04
  1.9210866e-02   2.5472485e-03
  1.5000799e-01   1.9934985e-03
 -4.1766700e-01   2.2916913e-03
  4.7641045e-01   5.2330742e-04
  4.9013168e-01   5.3454814e-03
  2.8062066e-01   6.8599178e-04
 -1.8906068e-02   1.2872160e-03
 -7.4557500e-04   2.1012300e-03
  7.4574389e-03   7.7625108e-03
 -7.2918713e-02   8.9328387e-04
  1.5148234e-01   2.3139752e-03
  5.4774249e-01   4.6688602e-03
 -6.2920380e-01   5.9350729e-03
 -1.8224288e-03   2.7642981e-03
 -3.9123315e-02   1.6152314e-03
 -3.0305528e-03   8.1825135e-03
 -1.5609763e-03   2.4286592e-03
  2.2113862e-02   1.4909855e-03
 -3.2215826e-02   3.4376131e-03
  1.2031567e-02   2.8558776e-03
 -3.0079478e-01   1.0487030e-03
  1.9795644e-01   6.4486725e-04
  2.8405324e-02   1.2339700e-03
 -4.9648136e-02   3.3280041e-04
  1.7705598e-04   1.4113474e-03
 -2.2564650e-02   6.6238799e-04
 -2.6996830e-01   9.1228058e-04
  2.0889368e-02   4.5744432e-04
  1.0380597e-01   1.4453098e-03
 -7.8941267e-03   8.9229451e-04
 -1.7074438e-02   1.3922125e-03
  1.1525203e-02   7.5467108e-03
  2.9673126e-02   3.2069152e-03
 -2.4535899e-01   5.4953649e-04
  2.3630008e-03   2.1988514e-03
 -3.0145545e-02   5.3807274e-03
  3.2640524e-02   1.0369699e-03
  4.3148096e-03   1.9333404e-03
  6.6296314e-03   1.8391665e-03
 -2.2473850e-04   1.0292669e-03
  2.4138964e-05   6.4302440e-04
  1.6962912e-02   3.9259745e-03
  1.7637512e-02   1.1900091e-03
  2.3657487e-01   7.5515552e-04
 -6.9370598e-04   2.0324558e-03
 -2.9811516e-04   9.2081976e-04
 -2.6254696e-03   2.5883794e-03
 -1.5809117e-02   5.4046878e-04
 -1.5023123e-02   3.6329532e-03
  4.4144135e-02   1.1456230e-03
  1.4040736e-02   6.5857149e-04
  8.3831055e-03   2.0114635e-03
 -1.1881752e-02   4.3509277e-03
 -3.7824614e-03   2.3568338e-03
 -6.9808841e-02   8.9295750e-04
  9.0871262e-04   5.5693202e-03
 -4.0639783e-03   1.4586119e-03
 -1.2801429e-02   3.3452786e-03
 -2.0248638e-02   1.5045598e-03
 -2.8370840e-02   4.5025446e-03
  2.3790426e-03   3.3067723e-03
 -3.1765548e-03   1.9376369e-03
  5.5413111e-04   5.1601343e-03
  3.5661056e-03   2.0198473e-03
  2.1121725e-03   2.2618084e-03
 -1.3919275e-02   2.4845626e-03
  1.0286517e-02   2.9513587e-03
  3.9094359e-02   3.7429030e-03
 -1.8912554e-02   4.2073564e-03
 -6.3999370e-02   5.5806700e-04
  7.3000235e-03   3.0230945e-03
 -1.8409925e-02   1.3220635e-03
  9.9259596e-03   3.8101447e-03
 -2.4813393e-03   1.9765373e-03
  2.7047582e-03   1.0506043e-02
 -6.2663495e-03   8.4462892e-03
 -1.8421354e-02   4.9617644e-03
 -3.5449974e-03   4.4359956e-03
 -1.9278007e-02   6.2806006e-03
 -1.1082594e-02   2.6317406e-03
 -6.0618836e-03   2.6670995e-03
 -1.3172828e-03   1.5938903e-03
 -6.1433733e-02   7.6646416e-04
 -3.8971461e-02   2.2375314e-03
  2.4365427e-02   2.6971952e-03
 -2.6536819e-02   3.5328832e-03
 -1.1494778e-02   5.1118652e-03
 -1.2706595e-02   2.0990821e-03
 -2.0579295e-02   1.8026452e-03
  8.9286016e-03   2.8591454e-03
 -8.9836176e-03   2.3370038e-03
 -8.1341760e-03   1.9962711e-03
 -9.0078553e-03   2.8577012e-03
  2.0533863e-02   1.5576949e-03
 -3.3230633e-03   3.9880886e-03
  3.0248944e-02   2.9918160e-03
  3.4266785e-02   1.9031361e-03
  2.7019400e-03   8.5651856e-03
  1.4793644e-02   2.6662319e-03
  1.6483568e-02   3.9537014e-03
  2.2085272e-02   2.4986970e-03
  2.0259537e-02   2.5317518e-03
  1.1338185e-03   2.7514454e-03
 -2.0896035e-04   3.6045178e-03
 -1.5523794e-02   9.8433532e-04
  2.3497999e-02   5.3148326e-03
 -1.7273335e-03   8.4223144e-04
  1.9134970e-01   1.2378695e-03
  6.0531241e-03   1.0153673e-03
  4.8934068e-03   2.4406684e-03
 -7.0576498e-05   2.3917740e-03
  1.2909565e-02   2.9328994e-03
  1.8225878e-02   1.9824391e-03
  3.3004438e-03   2.2139312e-03
 -2.9809421e-02   2.4013857e-03
  4.8892200e-02   2.4577947e-03
 -3.2267831e-03   2.3184624e-03
 -2.3622986e-02   5.7938276e-03
  8.1677716e-03   3.4124861e-03
 -4.1341681e-02   1.8880557e-03
  2.1993371e-02   3.1067980e-03
 -6.6833116e-02   4.6222550e-03
 -8.5777999e-04   3.0103780e-03
 -2.6790874e-02   3.4006352e-03
  1.9119433e-01   1.0242310e-03
  1.6058744e-03   1.9671028e-03
 -7.9928031e-03   1.8228939e-03
 -2.3794757e-02   3.6909289e-03
 -2.7841616e-03   7.0176432e-03
 -1.8195590e-02   6.1723762e-03
  1.5339051e-02   4.3421467e-03
 -2.5192622e-02   3.2217042e-03
 -1.3581675e-02   2.1279631e-03
  2.6919363e-02   4.8969622e-04
 -1.2376660e-04   2.1443539e-03
 -1.9483495e-04   3.8779550e-03
  1.9843845e-02   3.6472464e-03
 -1.5616525e-02   1.3354878e-03
 -4.5937360e-03   4.4291224e-03
 -3.3173591e-02   3.9876858e-03
  3.6565501e-02   5.9303013e-03
  1.9249776e-02   3.2406740e-03
  1.2184779e-02   3.5179763e-03
 -6.4153704e-03   6.9535915e-03
  2.6534484e-03   1.3195897e-03
 -2.5225461e-03   2.6313707e-03
  3.9744623e-02   3.7932543e-03
  9.8459590e-03   2.8208252e-03
 -1.1272127e-02   5.1961057e-03
  1.0804643e-02   2.9696792e-03
 -3.4584352e-03   5.2939882e-03
  9.6338578e-03   2.9467153e-03
 -1.9225250e-01   7.4034691e-04
  1.3253863e-01   2.0863800e-04
 -1.7673281e-01   4.6487097e-04
  5.2232058e-03   7.3560164e-04
 -2.8704160e-01   3.0471289e-03
 -6.6904527e-01   1.3538928e-03
  4.2382771e-01   5.7040455e-05
  6.6659041e-02   3.2179800e-04
  1.1816404e-01   3.6154827e-04
 -8.4616758e-02   1.2706040e-03
 -9.9082189e-03   2.9961825e-03
 -3.2664046e-02   4.9938173e-03
 -1.4607845e-02   2.7142412e-03
 -2.4634898e-02   1.7497374e-03
 -2.2003660e-03   4.1270480e-04
  1.7560214e-02   5.1578442e-03
 -4.5179441e-03   4.3596854e-04
 -8.0547072e-02   3.6967329e-03
 -3.9165389e-02   3.3410974e-03
 -5.0055808e-01   2.8035423e-04
  8.3799763e-03   5.7044270e-04
 -4.7923820e-03   1.6195482e-03
 -7.6302841e-02   2.0129184e-04
  6.9208853e-02   2.8047798e-04
 -4.0645085e-02   9.9606498e-04
  2.3961848e-02   1.2901119e-03
 -2.8368894e-03   1.6982997e-03
 -2.0532439e-02   7.8053883e-04
 -7.3342049e-03   1.7561427e-03
  3.9637685e-02   5.4217648e-04
  6.5639317e-03   2.1792725e-03
 -1.0531165e-02   4.2283260e-03
 -1.9286232e-02   5.0541561e-04
  3.0863798e-01   1.5339063e-03
 -1.1891739e-02   1.3229909e-03
 -1.1668610e-03   2.7894813e-03
 -6.5567428e-03   2.0951263e-03
 -2.5028884e-03   2.0844468e-03
  2.6748627e-02   1.5258548e-03
 -1.6148170e-03   2.5691595e-03
  1.3179001e-01   1.3529211e-03
 -1.4135867e-03   6.8163808e-04
 -2.5585097e-01   1.5471139e-03
 -2.5840834e-02   2.0764326e-03
 -2.4854913e-03   3.6077341e-03
 -5.0849989e-02   2.1500834e-03
 -1.4911260e-02   4.4508926e-03
 -4.8420366e-02   4.2803609e-03
 -3.9218374e-02   4.1418923e-03
  1.2905045e-02   2.5199095e-03
 -1.7474391e-02   1.7438234e-03
  2.2057725e-02   4.1691116e-03
  1.3739270e-02   2.4136971e-03
 -3.2463038e-04   2.0856056e-03
  1.7058054e-02   2.8856520e-03
  2.0052998e-03   5.1650265e-03
  2.4172438e-02   6.1657531e-03
  3.2364479e-03   3.2907338e-03
  3.8298636e-03   1.0567382e-03
  4.3615932e-03   3.9924523e-03
 -1.4658868e-02   3.9431406e-04
  3.9368607e-03   2.7708402e-03
 -8.6207669e-03   4.0192143e-03
  1.4161688e-02   4.3374370e-03
 -6.4050127e-03   4.6525677e-03
  7.5849164e-03   3.8057656e-03
  1.4914207e-02   3.4459690e-03
  1.7203359e-03   4.4155195e-03
  1.9272132e-02   9.8265882e-04
 -7.1127731e-03   1.4120322e-03
 -7.5005931e-03   2.1029213e-03
 -2.3978088e-02   7.9429736e-03
 -1.0049152e-02   1.3306424e-03
  1.0796117e-02   3.7344862e-03
 -8.4486781e-03   1.5373272e-03
  1.8071275e-02   3.4094534e-03
  1.1667375e-02   6.0338234e-03
 -1.5607982e-02   3.9444240e-03
  3.2417558e-03   3.3001848e-03
  9.9485796e-03   5.1951236e-03
  6.1327275e-02   2.9149961e-03
  3.9602173e-03   3.8274010e-03
  8.7463594e-04   1.5813826e-03
 -3.2387279e-02   2.1340868e-03
  1.3110108e-03   3.8351286e-03
  6.0667433e-03   3.7089074e-03
 -6.6023311e-03   8.6836340e-03
 -2.7037347e-03   3.9402698e-03
  2.1995406e+00   4.6414835e-04
  5.7474937e-02   4.1987866e-04
  2.1707736e-01   5.6619098e-04
 -3.0992472e+00   3.3131929e-04
  2.8380176e-01   2.0122102e-03
 -2.2543971e-01   7.9951755e-04
  1.4225644e+00   5.4087199e-05
  3.9358100e-01   4.5625198e-05
 -3.1640214e-01   5.1993062e-04
  3.5956573e-02   9.0429978e-04
 -1.5786176e+00   2.1541654e-04
  5.9382932e-05   5.2656196e-03
 -3.6528319e-01   2.7473115e-03
 -2.4829999e-01   1.5766312e-03
 -4.2161885e-01   6.5556559e-04
  2.5110811e-01   3.7518432e-03
  6.6696621e-02   7.1812893e-04
 -4.2580187e-02   2.2473710e-03
  6.5206580e-02   4.9115214e-03
 -3.1381613e-01   1.2075915e-03
 -5.7497430e-01   1.6787481e-03
  4.2989414e-02   1.5097267e-03
  2.7183765e-01   2.0734656e-03
 -6.1061651e-02   9.5454138e-04
 -1.9025847e-02   5.4107872e-03
  7.9747457e-03   1.8202809e-03
 -1.3763790e-03   2.3767381e-04
  5.2306071e-02   1.7125026e-03
 -1.8821241e-02   1.4640288e-03
  4.0547484e-01   1.0990280e-04
 -1.3435643e-02   9.8847353e-04
 -9.4674388e-04   3.2319729e-03
 -7.6286294e-03   2.4974965e-03
  1.3321844e-01   1.3736421e-03
  9.9312723e-02   2.0867665e-03
  1.4044801e-02   6.1551142e-03
  4.0453885e-02   6.5769818e-05
  3.0268152e-04   2.5668039e-03
 -9.9576041e-03   2.5089104e-03
  1.8664638e-02   3.2492466e-03
 -8.1868954e-02   4.9860119e-03
 -3.8522474e-02   4.0336535e-03
 -6.4231409e-03   4.8011290e-03
  5.7042041e-04   2.7712930e-03
 -2.8068183e-03   2.2288428e-03
 -1.5771173e-02   2.5297385e-03
  3.7525157e-03   2.0019365e-03
 -1.6249960e-02   1.3495238e-03
  1.4852369e-03   3.6421318e-03
  1.2244475e-02   1.1442604e-03
  2.0185817e-02   1.0553886e-03
  1.2958832e-02   1.3598782e-03
  7.4883867e-03   4.3196208e-03
  2.7215932e-03   2.2335178e-03
 -1.3428698e-02   2.7852647e-03
 -1.3294023e-02   3.2080652e-03
 -9.2494972e-02   8.0813341e-05
  9.3505820e-03   6.1360542e-03
  3.2749877e-03   9.6292766e-03
  1.3944016e-02   4.9761445e-03
  7.0222574e-03   1.2043791e-03
  2.5916187e-02   3.3329183e-03
 -1.7442351e-02   8.4994501e-03
 -1.1630422e-02   3.4671025e-03
 -5.9807900e-04   1.7950435e-03
  1.6079834e-02   3.3362380e-03
  9.4498470e-03   3.3696382e-03
 -1.1488091e-03   1.5092314e-03
  6.8193874e-03   2.0794924e-03
 -2.8112996e-03   2.0833723e-03
 -1.2837915e-02   3.6510353e-03
 -3.2589096e-01   1.2502783e-04
 -4.8715863e-02   9.0139825e-04
 -7.3459256e-04   1.0076663e-03
  5.1903883e-03   1.9033680e-03
  3.2598206e-03   4.9463590e-03
 -8.3147520e-03   5.1844046e-03
  6.2716422e-03   1.8951916e-03
 -5.3632548e-03   5.2153424e-04
 -7.3111928e-03   5.0774943e-03
 -9.6969530e-03   3.3169207e-03
  6.5756780e-03   3.6727667e-03
  2.3478228e-03   3.8933987e-03
  7.7944407e-03   4.9337675e-03
  4.8718173e-03   2.1797360e-03
  4.7208052e-03   4.4123717e-03
  6.7923591e-03   5.0915754e-03
  2.1021503e-03   2.4386868e-03
 -7.0894449e-03   2.9511580e-03
 -6.2343257e-04   1.0254676e-03
  6.8425913e-03   1.7005753e-03
 -2.3922592e-03   2.2505946e-03
  5.8227186e-03   8.5122022e-04
  2.8898690e-02   1.6083143e-03
  2.6245983e-02   1.2229298e-03
  1.1013685e-02   9.4795658e-04
 -4.8215568e-02   2.0808271e-04
  1.3641714e-02   2.6381204e-03
 -1.6069248e-02   3.8162917e-03
 -1.7562498e-03   4.7121453e-03
  5.2024173e-03   2.5568409e-03
 -1.5617899e-02   1.2672315e-03
  1.1442864e-03   4.7421749e-04
 -1.6392166e-02   6.0972292e-03
  7.4080453e-04   3.7936568e-03
 -2.2460367e-03   4.6104644e-03
 -4.9168221e-03   1.1809593e-03
  2.7672382e-02   5.9333676e-03
 -1.3873096e-02   9.5878216e-03
 -6.7670825e-03   4.4234670e-03
 -4.5138553e-02   3.9473698e-03
  4.4312183e-02   3.8086900e-03
 -1.6352995e-03   5.2428842e-03
  2.3889868e-02   9.7802468e-04
  8.0478806e-03   3.1593021e-03
 -3.5568231e-03   4.2362250e-03
 -1.7244443e-02   5.2843634e-03
  2.8799905e-02   2.8759637e-03
  3.3895164e-03   7.7347578e-03
  1.1606961e-02   2.8003559e-03
  2.9933818e-02   1.3792497e-03
 -3.4960366e-03   3.0087791e-03
  3.2205351e-02   7.4696629e-03
  1.4131336e-02   4.4093644e-03
 -1.1529807e-03   2.9024014e-03
  1.5881179e-03   1.9139734e-03
 -1.1237913e-02   1.6048169e-03
  2.6810704e-02   2.2630156e-03
 -2.9085327e-02   5.1176981e-03
  1.7977323e-02   3.4481401e-03
 -1.4187311e-02   2.2918025e-03
 -1.3537499e-02   3.8818370e-03
 -5.5037383e-02   3.6498797e-03
  2.4657721e-02   1.3024934e-03
  1.4488589e-02   7.4025185e-04
 -3.6919933e-02   3.0054795e-03
 -1.3056278e-02   3.4607211e-03
 -9.8575256e-04   1.1182248e-03
 -3.2378327e-02   1.5785578e-03
 -1.9777033e-02   1.7896490e-03
 -2.1970002e-02   2.3821490e-03
  1.5211041e-02   1.7706254e-03
 -5.7878867e-02   1.5023772e-03
  1.6383199e-03   1.6790493e-03
 -9.3115517e-04   2.1755248e-03
  5.3027121e-04   8.6036202e-04
  3.7529352e-03   1.6165777e-03
 -9.0303421e-03   2.0746810e-03
 -5.7474924e-03   9.3971548e-04
  1.1678204e-02   5.7040998e-03
  1.9683247e-02   4.4754804e-03
  6.0016839e-03   4.9401554e-03
 -7.3811254e-03   1.6528155e-03
 -1.4043055e-02   4.0691760e-03
 -2.1102814e-01   1.2113712e-03
  1.2650049e-01   1.5654381e-03
  1.3833552e-02   1.0329206e-03
  1.4541282e-02   2.7066965e-03
 -4.6128528e-03   2.7940955e-03
  1.9636322e-02   2.1322628e-03
 -1.3889810e-02   9.5835105e-03
 -7.6989771e-04   2.5920710e-03
 -1.5101993e-02   2.6358045e-03
  1.6853571e-02   3.4428816e-03
  7.2772559e-03   3.2080121e-03
 -2.0249866e-02   3.9289603e-03
  1.1697822e-02   4.4156224e-03
  1.6905801e-02   1.0645112e-03
  1.5035487e-02   3.9628362e-03
  2.5429064e-03   4.2744639e-04
 -7.2342432e-03   6.2225251e-03
 -3.8645463e-03   4.3134522e-03
 -7.5782620e-04   3.3565271e-03
 -3.1085104e-02   5.7066279e-03
 -1.6997196e-01   8.0268440e-04
 -1.0574632e-02   2.9777281e-03
 -9.1817990e-02   2.4559748e-04
  8.8345967e-03   1.2241346e-03
 -1.2886702e-02   2.9015946e-03
  5.7586510e-04   1.6723983e-03
  3.5650004e-04   2.7998583e-03
 -8.0191232e-03   1.1685820e-03
 -2.5041793e-02   7.5416075e-04
 -7.8716278e-03   3.3881725e-04
  7.8893341e-03   3.8103473e-03
 -6.4434782e-03   1.0844923e-03
  1.9200640e-02   1.4117537e-03
 -3.1377207e-02   2.3939654e-03
 -1.7407313e-02   2.8426272e-03
  1.8921968e-02   6.2665134e-03
  4.7135842e-04   5.4641473e-03
  6.7304692e-04   6.9035185e-03
 -1.6568711e-02   1.9369631e-03
  5.9193395e-02   5.7736048e-03
  1.6989963e-02   2.6803596e-03
  1.5188438e-03   1.2980376e-03
 -1.4656200e-02   3.9556562e-03
  2.5917077e-02   6.1991625e-03
  5.0712689e-03   3.2018463e-03
 -5.4144561e-03   2.5091385e-03
  4.9786814e-03   2.1647543e-03
 -3.3130933e-02   6.8278662e-03
 -1.8717810e-03   4.5830319e-03
  2.4003956e-02   3.7195701e-03
  1.1288475e-02   3.8570745e-03
 -7.8410618e-03   1.7745112e-03
  5.3852573e-03   3.0370080e-03
  1.9411601e-02   5.7342872e-03
  1.0321049e-02   5.9300764e-03
 -2.5363063e-02   3.7643898e-03
  1.5988186e-02   6.4658993e-03
  1.7935285e-02   5.0968099e-03
 -6.1539053e-03   2.5396042e-03
 -1.4812634e-03   2.0422207e-03
  6.5609468e-03   5.0710062e-03
  1.1860606e-03   4.3263589e-03
 -4.7747366e-02   4.2854943e-03
  1.2715389e-03   4.2743650e-03
 -5.1909185e-05   3.8604166e-03
 -3.0848192e-02   2.2029055e-03
  7.4583989e-01   1.0866034e-04
 -2.6940648e-02   1.7875075e-04
 -5.0503385e-01   4.4077973e-05
 -6.6844755e-01   3.9832966e-04
  6.3187975e-01   3.0718956e-04
  6.0611749e-01   2.7437694e-04
 -7.1862710e-01   3.1155574e-05
  2.7776244e-01   1.6056540e-04
 -6.4630610e-01   2.5284826e-04
 -7.4815661e-02   3.1779401e-04
  3.3564690e-01   1.2848079e-03
  1.6309072e-01   4.1753091e-03
  2.2285382e-01   6.5661932e-04
  1.7379051e-01   3.5212305e-04
  1.4347551e+00   1.9152772e-04
 -6.9912292e-02   1.1313681e-03
  5.4404411e-02   4.0269174e-04
  1.3145767e-01   6.7823619e-04
  1.0443152e-02   6.9153809e-04
 -2.4116455e-01   5.7878706e-04
  1.2801392e+00   3.8059539e-04
  6.1805841e-02   3.7418547e-04
  1.4808457e-03   7.3577586e-04
 -2.5492543e-01   6.1035482e-04
  1.1592122e-01   1.1004965e-03
  1.6795924e-01   1.9291564e-04
 -1.0731614e-01   8.6780771e-04
  3.4078857e-01   1.7724180e-04
  5.3923225e-01   3.1940261e-04
 -2.9281306e-01   3.7415503e-04
 -6.6632785e-02   7.0253259e-04
  3.7447569e-01   2.7195916e-03
 -2.1406313e-02   1.3868483e-03
  6.8069652e-02   8.6345023e-04
  7.2303496e-02   1.3287207e-04
  1.4668992e-01   1.2202243e-03
  5.9337205e-01   1.2413214e-03
 -5.0917339e-02   1.4759307e-03
 -6.8875561e-03   7.3233014e-03
  5.4299058e-03   3.8354616e-03
  1.7272629e-02   1.6559254e-03
  1.0667493e-03   3.1449697e-03
 -3.4536406e-02   1.7589177e-03
  6.3789063e-03   1.9972988e-03
 -3.0723240e-03   1.3199875e-03
  1.2729459e-03   2.1202348e-03
  1.9136675e-03   2.6197124e-03
 -1.6986699e-03   6.3681463e-04
 -8.4799919e-03   2.9185298e-03
  4.6647112e-03   1.4060836e-03
  1.4405162e-02   1.3049722e-03
  9.3427733e-02   5.4475234e-04
  2.2373700e-03   2.8684018e-03
  2.1011028e-02   4.5760334e-03
 -1.0833922e-02   4.7029485e-03
 -1.0195079e-03   3.6192576e-03
  4.1255443e-03   3.4965698e-03
  4.6500573e-03   1.7050731e-03
  1.3058552e-02   3.0091244e-03
 -4.9888361e-03   5.6888731e-03
 -3.0210877e-02   6.3937902e-04
  1.6838040e-02   2.0705729e-03
 -2.6526392e-02   2.5569079e-03
  9.7026797e-03   2.5768168e-03
 -3.9117401e-03   2.3284999e-03
 -8.3737867e-03   2.1042770e-03
  4.5750933e-03   1.8686323e-03
 -1.8081950e-02   1.9115343e-03
  4.9271591e-02   1.0142277e-03
 -7.5189181e-04   2.8017976e-03
 -1.9763459e-02   4.8779268e-03
 -2.1602241e-03   2.4523081e-03
  2.8177814e-03   1.1091112e-03
 -7.4384515e-03   1.8089800e-03
 -1.5577770e-02   4.3707746e-03
 -4.3126605e-03   5.7826666e-03
 -5.7193129e-03   2.9654489e-03
 -2.0872209e-02   3.4969815e-03
  2.0941723e-02   1.1663815e-03
  2.3065671e-02   4.7696023e-03
 -3.9831758e-03   2.0220852e-03
  2.0278698e-02   2.2322850e-03
 -5.8195146e-04   4.9918769e-03
 -4.4459566e-03   3.3315530e-03
  9.6211926e-04   1.5587070e-03
 -1.9877504e-03   1.5354845e-03
  1.4261599e-02   2.8595754e-03
  5.2220151e-03   8.1453257e-04
  4.3416495e-04   3.5437595e-04
 -7.1422337e-03   1.9450919e-03
  2.2395416e-03   3.5710458e-03
  4.6704177e-02   1.5828020e-03
  5.3200633e-03   6.5433560e-03
 -1.0597725e-02   3.1947384e-03
  4.7973537e-01   7.2488294e-04
 -1.6734062e-02   1.6049998e-03
  1.7007919e-02   7.1922406e-03
 -1.4507510e-02   3.7442760e-03
  6.4910632e-03   5.5409921e-03
 -1.3271332e-02   6.1901803e-03
 -2.7732536e-02   4.5211655e-03
 -8.9103810e-02   1.7109409e-03
  1.2758218e-02   2.9679779e-03
  5.9995321e-03   3.1089792e-03
  6.3355830e-03   2.4665070e-03
 -6.2556796e-02   2.5231687e-03
  3.2657259e-03   3.4304422e-03
  1.2033158e-02   3.4528109e-03
 -2.4895078e-02   1.7698437e-03
  4.9623195e-03   1.7022099e-03
  1.1880523e-02   1.6511814e-03
  6.0977102e-03   2.6731454e-03
 -5.8942232e-03   1.2428486e-03
  3.6375092e-03   1.7996606e-03
  3.9626211e-02   3.2624020e-03
 -2.7103888e-02   1.7444452e-03
  3.9006213e-03   4.3983138e-03
 -1.9705929e-03   1.1740563e-03
 -1.6384022e-03   2.4050907e-03
 -5.9729423e-03   3.6697162e-03
  2.1582708e-02   8.8158803e-04
  5.0993722e-02   2.8017580e-03
  7.0372131e-03   3.3513855e-03
  5.7280790e-03   2.2926219e-03
  8.9994818e-04   4.9843672e-03
 -6.9576940e-03   2.5215263e-03
 -3.6560003e-02   3.1977941e-03
  9.6210120e-03   3.3236123e-03
 -3.4211632e-03   4.0526483e-03
 -1.1886978e-02   6.1280164e-03
  9.0577829e-05   3.0882913e-03
 -6.6107092e-03   1.4423423e-03
 -4.2136642e-04   5.9422851e-03
 -4.0625822e-02   1.3779618e-03
 -1.1841483e-02   3.9064158e-03
  6.5158091e-02   1.8088691e-03
  1.0639103e-02   4.6564112e-03
  1.2792042e-02   1.8678459e-03
 -7.2049789e-02   2.9278346e-04
  7.1559601e-02   4.3895020e-04
 -1.9724183e-03   1.3960617e-03
 -8.4743146e-03   1.2840014e-03
 -3.7799269e-02   1.2374548e-03
  4.8387483e-02   5.7892874e-03
  1.2090163e-02   4.5454190e-03
 -7.3289140e-03   4.3309382e-03
  1.1589809e-02   2.3053936e-03
 -8.7555554e-03   5.6901169e-03
  5.9904954e-03   1.4415355e-03
 -3.0878262e-04   2.2866728e-03
  1.2828032e-02   2.1918947e-03
  1.7979213e-03   3.9771637e-03
 -6.6751749e-03   2.5024833e-03
  1.2656663e-02   5.1930081e-03
 -5.1257028e-03   5.5470648e-03
  1.1403371e-01   1.3054124e-03
  1.3058801e-02   5.3325584e-03
 -1.1333372e-02   6.4033414e-03
  1.5030052e-02   2.4588248e-03
 -2.4801433e-02   6.7967328e-04
 -7.0757717e-03   1.4844767e-03
 -9.5801894e-03   1.7336177e-03
  6.1587193e-03   2.0586385e-03
 -7.2105988e-03   2.0922900e-03
 -2.2268968e-02   7.2518294e-03
  1.9925894e-02   1.7495621e-03
  1.3211629e-02   3.6424291e-03
  6.9891815e-03   2.8239121e-03
  3.4822454e-03   3.9162152e-03
 -2.0811439e-02   3.6547631e-03
  2.9154152e-03   3.8445657e-03
 -5.5396311e-02   5.7416281e-04
 -7.7631483e-03   2.4593761e-03
  1.8989210e-03   3.1268718e-03
  5.0937198e-03   1.3459610e-03
 -1.0029353e-02   2.0918632e-03
 -1.8651940e-01   1.2855930e-03
 -1.1354837e-02   3.8690568e-04
  5.1155690e-02   1.2052768e-03
 -9.1226780e-01   6.1383290e-04
 -4.4930268e-02   1.2026640e-03
 -9.9434346e-02   6.2001689e-04
 -5.4124427e-01   3.1936661e-04
  8.1747793e-02   7.4410927e-05
 -2.1948384e-01   2.2308066e-04
 -5.7843835e-03   2.4807916e-04
  1.4825843e-01   3.3026892e-03
  1.1696648e-01   6.6896793e-03
 -2.0499235e-01   1.8795356e-03
 -2.3617693e-03   1.5987455e-03
  3.9044674e-02   1.1670198e-03
  2.5926628e-03   1.8459614e-03
  6.0869550e-04   5.2820583e-04
  5.9070870e-02   2.8443206e-03
  3.2760056e-03   3.3911122e-03
 -5.4277994e-02   1.1337852e-03
  6.6379704e-05   8.4327906e-04
  2.1140359e-03   2.8308230e-03
  5.9758525e-02   4.4563645e-04
 -1.4894646e-01   3.6645078e-04
 -7.6661929e-03   2.2805426e-03
 -3.8231373e-02   1.4225320e-03
  5.3506684e-02   3.0536635e-03
  2.2083567e-01   1.1068111e-03
 -1.0910112e-02   1.3811844e-03
 -1.5243032e-02   5.3357641e-04
 -1.7176069e-01   2.7521595e-03
  4.2987522e-03   7.3237480e-03
 -9.4099818e-03   1.2529384e-03
 -1.4931205e-01   1.0700666e-03
 -9.3509786e-02   4.2566346e-04
  1.6715067e-02   1.6125517e-03
 -5.0468540e-01   7.5745786e-04
 -1.4579308e-03   2.6394615e-03
 -2.6602844e-02   6.9968547e-03
 -3.1089103e-02   3.1137695e-03
  2.7320553e-03   6.4988872e-03
  5.4573030e-03   1.5497144e-03
 -3.1144734e-02   6.0081002e-03
  4.4107918e-02   2.1108678e-03
  1.7002930e-01   8.8500492e-05
 -8.7737828e-01   4.4551757e-04
  2.4572226e-01   9.7976299e-04
  7.4654675e-01   6.4061495e-04
  2.0259082e-01   1.1959439e-03
 -8.5536259e-01   3.9380961e-04
  6.4077574e-01   5.1896841e-05
  6.4801913e-01   1.3388867e-04
  2.6005304e-01   1.1889102e-03
 -5.9384757e-01   2.2503678e-03
  5.8738446e-01   2.6360680e-03
 -9.8027177e-03   2.1060193e-03
 -1.3628978e-01   1.0258011e-03
 -3.6342327e-02   1.0263269e-03
 -1.1079125e-03   1.3273645e-03
 -2.4642442e-01   3.6024319e-03
  4.8939496e-01   7.2512450e-04
 -1.3910994e-01   3.2348782e-03
 -9.2465132e-03   1.7792271e-03
  2.2405033e-01   1.0056656e-03
  7.3085994e-01   5.8746233e-04
 -4.4560716e-01   2.8240208e-03
  1.4785606e-01   9.7805145e-04
 -1.8994937e+00   4.5117107e-04
  5.2977275e-02   4.4840900e-03
  1.6907947e-03   5.5447244e-03
 -8.5827541e-03   3.0283069e-03
 -7.1942878e-01   1.7354301e-03
  4.3193382e-04   5.7058892e-04
 -2.1966273e-01   7.9181412e-04
 -2.1375841e-02   1.8309724e-03
 -1.3447957e-01   1.6888160e-03
 -1.6306367e-02   1.3702435e-03
 -3.7860628e-03   1.1551892e-03
 -2.0663871e-01   3.2739236e-03
 -8.0857694e-02   2.7978495e-03
 -4.9977562e-01   1.7991937e-03
 -3.7900862e-01   2.1098794e-04
 -7.2130999e-03   8.4628776e-04
  8.6711179e-03   6.0749189e-03
  2.7462514e-02   3.5306402e-03
  6.8002212e-04   5.0092610e-03
  1.3792280e-02   1.8916967e-03
 -4.7857901e-03   5.4465309e-03
 -3.2949039e-01   1.8611231e-03
 -1.4829752e-01   1.0812063e-03
 -1.9300453e-01   4.0471251e-04
  6.7946547e-01   4.0346634e-04
 -4.4219831e-01   7.4948801e-04
 -3.4141776e-01   1.8964306e-03
  1.5658020e+00   2.3318501e-04
  8.1693688e-03   6.9479225e-04
 -9.9650465e-02   8.1100781e-04
  6.0249829e-01   5.1218685e-04
 -1.7536207e-05   2.1742061e-03
  5.0237838e-02   5.7018781e-03
 -6.3403472e-02   1.7292110e-03
  1.2702243e-02   1.9563041e-03
 -1.0508166e-01   7.7445077e-04
  2.9066427e-02   9.7590312e-04
  8.3662397e-01   5.6550355e-04
  6.2927216e-02   1.8357455e-03
 -2.9407984e-02   6.5168133e-04
 -9.7747082e-03   2.1564953e-03
 -8.6654380e-02   5.6663016e-04
  1.7657988e-01   1.6409050e-03
  2.2040248e-02   4.9672701e-04
  1.0880164e+00   2.0395717e-04
 -3.6607352e-03   2.2114248e-03
  1.0631957e-01   1.9361497e-03
  1.2205370e-01   1.8061647e-03
  5.9100673e-02   1.2099671e-03
  1.7989807e-02   2.1473065e-03
  6.3494509e-01   9.6599240e-04
  1.7586610e-01   1.1352489e-03
  4.1124552e-02   5.3801141e-03
 -1.1188182e-02   1.7032048e-03
 -2.0871609e-02   1.1175121e-03
  5.6567169e-03   3.7216472e-03
  2.3664187e-03   2.1356638e-03
 -2.4507159e-02   2.9630503e-03
 -1.5113405e-02   2.5171707e-03
 -1.6976714e-02   6.4069042e-03
 -5.9419265e-03   4.7612791e-03
  1.0468862e-01   8.0741876e-05
 -4.2385712e-02   7.4319043e-03
  6.8750549e-03   1.0414032e-03
  3.4494385e-02   1.5497238e-03
 -1.0059935e-02   8.8787690e-04
 -7.0896968e-02   1.5469613e-03
 -1.0460384e-02   1.3673914e-03
  4.0778560e-03   7.2177812e-03
 -2.6447590e-02   5.5194860e-03
  1.1914843e-02   5.5941562e-03
  1.3604124e-02   1.3075210e-03
  1.2926983e-03   2.4651345e-03
  1.1040043e-02   3.7517243e-03
 -6.5366536e-02   2.5723269e-03
 -1.1401460e-02   2.9656882e-03
 -1.9697205e-03   6.4592349e-04
  1.1561237e-02   4.5139049e-03
  1.5494504e-02   4.8347251e-03
  5.4445118e-02   5.7955068e-03
  1.6805537e-02   1.6104820e-03
  2.2223555e-02   7.3452946e-03
 -1.5646586e-04   1.8947009e-03
 -4.4928856e-02   3.7501417e-03
 -4.4539217e-03   1.9853956e-03
  1.1126989e-02   2.4130659e-03
  2.4335073e-02   3.6178858e-03
  1.1017421e-02   2.7227800e-03
  1.8281717e-02   5.0255586e-03
  3.3099301e-02   8.1314455e-04
 -1.2872847e-02   7.3043362e-04
 -7.7685192e-03   5.0131045e-03
  4.5025654e-02   2.8062691e-03
  3.6758585e-03   1.8104021e-03
 -7.2968095e-03   3.3066701e-03
  2.7372530e-02   3.0894829e-03
  1.1628440e-03   5.0936937e-03
  3.2690968e-02   1.7219521e-03
  1.6087043e-04   4.0040114e-03
  3.2499465e-04   3.7215033e-03
  1.0265854e-01   4.1311193e-04
 -6.3726683e-03   3.0966594e-03
  7.0819291e-03   2.7281947e-03
  3.6091782e-02   4.0894803e-03
 -6.2466753e-03   1.8388020e-03
  1.1428344e-02   6.3423594e-03
  1.9421650e-03   2.9961767e-03
  9.9143460e-03   2.9900004e-03
 -2.1245934e-03   3.1141257e-03
  4.4962377e-03   1.0014990e-03
 -2.1102350e-02   4.2319848e-04
  2.2305226e-02   1.4576293e-03
 -7.3642009e-03   4.2421855e-03
  7.3187846e-01   9.2218898e-04
 -1.4474210e-02   5.4778566e-04
 -1.6721371e-01   1.1098218e-03
  1.2787469e-02   1.3866875e-03
  5.1948830e-02   1.1735379e-03
  4.7795761e-02   3.8734868e-03
 -1.1185160e-02   5.0881589e-03
  2.4770782e-03   3.2254923e-03
  3.8172484e-03   2.3219136e-03