  2.7565155e-03   4.8135762e-04
  9.4858621e-04   3.7529439e-04
  6.2722266e-03   5.3280918e-04
  8.9053711e-04   1.8846655e-04
  1.2963361e-04   3.9637447e-04
 -6.1553836e-02   6.0354105e-05
 -1.4047963e-03   4.3454874e-04
 -1.5470030e-04   4.3273278e-04
  4.8572349e-04   1.2373879e-04
  1.6596894e-04   1.4256014e-04
 -8.4411135e-05   1.4205753e-04
 -2.6216193e-03   6.0470321e-04
  2.3940257e-03   8.2499656e-04
  7.5104670e-04   5.9299788e-04
 -9.5479790e-04   7.4698462e-04
 -6.3065509e-04   3.2448425e-04
  1.2995474e-03   8.4182213e-04
 -1.3542118e-03   4.8377039e-04
 -8.2264701e-04   4.3683412e-04
  1.0111966e-03   3.9724345e-04
 -6.5504538e-04   2.7609171e-04
 -1.3854422e-03   3.0938091e-04
 -2.0022818e-03   4.7061255e-04
  5.4184962e-02   9.5957716e-05
 -6.8432294e-02   4.1432097e-04
 -1.1544603e-04   2.0992018e-04
 -1.0468685e-04   4.7191244e-04
 -6.3446967e-04   5.9702614e-04
 -6.3043535e-03   6.3064782e-04
 -1.3706437e-03   9.4655313e-04
 -1.8482753e-03   6.2983151e-04
  3.0283423e-03   5.1563862e-04
  1.1098038e-04   5.5636157e-04
 -3.5092328e-03   6.6805771e-04
 -9.3897688e-05   6.8313896e-04
 -4.1192020e-03   3.8394306e-04
  4.4220226e-04   5.5623782e-04
  8.6909335e-04   4.1502150e-04
  2.3659817e-03   3.3175142e-04
  1.7060278e-03   5.6767475e-04
  3.4358085e-04   4.3106783e-04
 -6.7555462e-04   3.9690358e-04
  5.7837088e-04   6.8736728e-04
 -1.6314944e-03   5.9506064e-04
 -4.5926910e-04   5.9748127e-04
  2.1959529e-03   2.0930068e-04
 -1.4666733e-03   1.9433220e-04
 -2.0642485e-03   4.2126334e-04
  8.5297646e-04   4.4307474e-04
  6.0916273e-04   6.5455877e-04
 -2.6827573e-04   7.0327724e-04
  3.2513018e-03   4.7771260e-04
  7.0858165e-04   2.1607545e-04
  2.4929410e-03   4.8024664e-04
  2.0093226e-03   6.6106033e-04
 -1.8461725e-03   5.6288653e-04
 -1.8739227e-03   5.4026570e-04
  2.0662332e-03   3.6826401e-04
 -9.5691683e-04   3.2884555e-04
 -9.0355542e-04   4.9237511e-04
  3.5704658e-04   5.3706550e-04
 -3.1663248e-04   6.1782048e-04
 -2.5891645e-03   4.9188983e-04
  6.6391547e-04   7.3297485e-04
  1.3039632e-03   4.7336749e-04
  3.8464924e-03   3.0968792e-04
 -9.4131130e-04   8.6713088e-04
 -1.2133351e-04   5.6135521e-04
 -3.1048257e-04   8.7337619e-05
 -2.3376869e-04   5.7002943e-04
 -2.5314095e-03   5.9839408e-04
 -1.3592811e-03   8.0998830e-04
  3.3457312e-03   2.2544911e-04
  8.0916996e-04   4.2006036e-04
 -4.7913377e-04   5.2033126e-04
 -8.2153529e-06   1.9067981e-04
 -8.5734285e-04   3.1439736e-04
 -2.0036807e-03   7.8482734e-04
  1.1249203e-03   3.2552774e-04
 -5.7396368e-04   3.4955723e-04
 -1.0255009e-05   2.2890027e-04
 -1.0134616e-03   4.0130335e-04
  2.1376244e-03   7.1920484e-04
 -2.5983392e-03   4.2095198e-04
  2.1618884e-03   7.0535281e-04
 -1.3641530e-04   2.9796638e-04
  3.5818311e-04   3.3350484e-04
 -7.9995417e-04   3.5910736e-04
 -7.7091792e-04   7.4518635e-04
  1.4259970e-03   4.3324713e-04
  4.2493665e-03   3.5034213e-04
  3.6326030e-03   1.7477819e-04
  2.8130636e-04   2.5310297e-04
 -1.0311841e+00   1.7727521e-04
 -2.1470806e-02   9.9762074e-05
 -6.5935780e-03   3.2636622e-04
 -5.9445016e-03   2.4703465e-04
  4.7615220e-04   3.3550983e-04
  3.8398299e-04   2.5639206e-04
 -7.0765999e-04   2.6920158e-04
 -1.6129583e-03   5.2093522e-04
  2.7045165e-04   3.7066580e-04
 -6.8847148e-05   9.5567713e-04
  8.3107894e-05   4.0347603e-04
 -4.6047419e-03   3.6967700e-04
 -8.4693835e-04   5.5556814e-04
  3.8665892e-03   3.0315426e-04
  2.7367687e-05   1.2321884e-04
  3.2470759e-04   4.6862991e-04
  3.1663818e-04   5.7183439e-04
  2.5359560e-03   3.1689127e-04
 -6.6661939e-04   3.7932824e-04
 -5.2535423e-04   6.1700732e-04
  3.0998586e-02   2.7581365e-04
 -4.4981349e-01   3.3011154e-04
 -3.9517018e-04   2.6018801e-04
 -8.5810991e-04   8.2491199e-04
  1.2528308e-02   2.4515067e-04
  1.0337045e-03   5.4358545e-04
  8.2243484e-04   4.5439773e-04
  2.0316301e-03   6.8199931e-04
 -3.2711185e-03   4.1095202e-04
  2.9384729e-04   3.4229373e-04
 -7.1092497e-04   3.2164695e-04
  2.9281018e-05   5.4304791e-04
  9.7905460e-04   6.5521407e-04
 -1.9551244e-02   3.1308256e-04
  1.9123566e-03   4.4935898e-04
  1.0686985e-01   9.6971497e-05
  8.8700099e-04   9.7649073e-04
 -1.3023923e-03   4.7787101e-04
  5.9268769e-04   3.5351078e-04
  1.3725673e+00   4.2604891e-04
 -2.4965299e-02   1.6880564e-04
  9.0835594e-02   9.8306860e-05
 -9.9034637e-01   1.1991450e-04
 -2.4026076e-01   2.0874196e-04
  6.3300216e-01   4.1570456e-05
 -4.0463829e-01   8.7973429e-05
  1.9070789e+00   2.9337092e-05
 -6.4292133e-01   4.6249119e-05
  9.3305629e-05   3.3715164e-04
  9.2500043e-01   3.7699955e-04
 -1.5032405e+00   1.5425366e-04
  3.1784827e-01   1.0889680e-03
 -4.1480958e-03   4.6449542e-04
  5.3651327e-01   6.7676645e-04
 -4.0334991e-01   3.2839697e-04
  8.0089605e-01   1.7469718e-04
 -1.1291917e-01   3.8911134e-04
  5.8006871e-01   1.4430317e-04
  6.1908120e-01   1.2533917e-04
 -3.9014006e-01   5.2324631e-05
  4.2628817e-04   9.7541540e-04
 -1.8443581e-01   1.5672218e-04
  5.5451417e-01   2.4776193e-05
  7.7342999e-01   2.0160896e-04
 -3.0265558e-01   8.0799342e-05
  9.5794624e-01   1.0931268e-04
 -7.0187241e-01   5.6409754e-05
 -5.2231646e-01   3.7981031e-04
 -9.1217655e-01   6.1013478e-05
  5.1502055e-01   1.5244888e-04
 -7.2502129e-04   3.1305192e-04
  1.0193381e-01   3.1929419e-04
  7.7465248e-01   4.0676547e-04
 -2.5164727e-02   6.0543348e-04
 -6.7778178e-02   1.1300942e-03
  2.9083239e-02   2.4648494e-04
  7.3065725e-03   1.7560668e-04
 -1.1299400e-01   9.7872317e-04
  1.9723622e-02   7.4963050e-04
 -3.5053092e-01   1.0047668e-03
  1.0119690e-01   1.0380793e-03
 -2.1265636e-03   1.1577442e-03
  5.8506268e-01   3.9949387e-04
  1.1873282e-01   2.9988392e-04
 -2.3083775e-03   4.3435828e-04
  1.0870401e-04   1.8617147e-04
 -1.2120483e-02   5.6041352e-04
  3.7070073e-05   4.3359085e-04
  2.7124348e-01   2.4974364e-04
 -1.3683026e-03   2.3923985e-04
 -5.0192960e-03   2.7639332e-04
  1.1664585e-03   2.6962897e-04
 -1.5203175e-03   4.8068332e-04
 -1.3624274e-03   3.1886017e-04
 -2.3778986e-02   4.8601374e-04
  3.0061309e-03   5.1246816e-04
 -5.5490953e-05   2.3031251e-04
  1.2370371e-03   2.3551367e-04
  4.5981072e-04   2.8059780e-04
 -3.7678971e-03   2.2701600e-04
 -3.2010704e-04   4.5452517e-04
 -1.8724358e-03   2.4860990e-04
 -2.3961594e-04   2.1158374e-04
  1.0158739e-03   4.1732806e-04
  5.2382576e-04   4.4119629e-04
  2.3187916e-03   3.0877124e-04
 -1.2918487e-03   4.4918407e-04
 -1.3485575e-03   7.2844606e-04
 -1.6618234e-03   1.0365160e-04
 -2.6888454e-05   2.4228512e-04
  9.9967420e-04   6.9550995e-04
 -9.1633883e-05   4.6101087e-04
  2.5076896e-03   2.0892410e-04
 -2.1872255e-03   5.7037763e-04
 -3.1011018e-03   3.0823748e-04
 -1.3208574e-03   4.4689860e-04
  1.4473501e-04   4.0343162e-04
 -1.6846841e-02   6.6875701e-04
 -4.6860399e-03   5.9451995e-04
  2.2641588e-03   5.4953812e-04
 -1.5521180e-03   4.4125412e-04
 -1.1798036e-03   3.7714347e-04
  1.8100899e-04   3.0365918e-04
  2.9981832e-03   4.7367034e-04
  3.2358402e-03   5.0142675e-04
 -1.0911403e-03   2.0602917e-04
  3.4507352e-04   9.0677774e-04
 -4.1399876e-04   6.5715145e-04
 -4.8063608e-04   3.0596982e-04
  8.4168970e-04   3.4533427e-04
  9.4758421e-03   2.0946313e-04
  2.2282754e-03   4.4107728e-04
 -1.5586287e-01   4.5201011e-04
 -5.3409324e-04   4.3704669e-04
  7.0238760e-04   5.5757107e-04
 -8.8392571e-04   3.6588134e-04
 -2.1764224e-03   5.3349097e-04
 -3.7364441e-03   6.5315675e-05
 -4.5173769e-04   1.0330131e-03
 -1.0527112e-04   2.3204136e-04
 -3.4580176e-04   1.2024651e-04
  2.6568626e-03   4.3812871e-04
  1.3067859e-03   3.9312366e-04
 -3.1179304e-03   3.0298030e-04
 -1.6316774e-03   3.4458999e-04
  6.2076334e-04   2.4876936e-04
  1.4771501e-03   4.9631094e-04
  8.9356548e-04   6.7210378e-04
  5.2463249e-03   4.3112721e-04
  2.1066163e-03   3.2910981e-04
 -3.7278219e-03   3.6926064e-04
  1.5894175e-03   3.3566894e-04
  8.1893662e-04   2.4601223e-04
 -5.7366124e-04   4.8637687e-04
 -7.9227990e-05   3.1491084e-04
 -1.8166763e-03   8.6748146e-04
  1.2550576e-03   3.8481364e-04
  2.2561688e-04   5.6605076e-04
  3.4827900e-03   4.8069833e-04
 -1.2682189e-03   4.4969222e-04
  4.3226755e-05   7.1336806e-04
 -4.1092071e-03   5.0878874e-04
  1.6389216e-03   4.0861266e-04
 -3.0304477e-04   4.6036256e-04
 -3.5331011e-04   1.5987498e-04
 -1.3357819e-03   1.8946112e-04
 -1.6984128e-03   4.1109155e-04
 -5.1273464e-04   1.4434612e-04
  9.9767861e-04   4.4384634e-04
 -6.5913126e-03   4.0707149e-04
  2.7446599e+00   9.8271419e-05
  1.6117695e-04   5.3512672e-04
 -6.9462485e-04   2.7012100e-04
 -8.9775771e-04   5.4256676e-04
  4.7556270e-04   5.9690105e-04
  2.7765913e-03   5.5402942e-04
  4.4083616e-04   3.9944160e-04
 -5.5276166e-04   4.0474336e-04
  8.9474482e-04   2.8822201e-04
 -1.0332462e-03   2.8275736e-04
  1.8699499e-03   1.8059564e-04
  1.7855589e-03   3.4866392e-04
 -2.4389963e-04   2.5299346e-04
 -2.1941129e-03   3.6526457e-04
  1.7013206e-03   3.4376694e-04
  3.8567178e-03   3.3280870e-04
 -7.2466856e-04   5.4316298e-04
  1.2776870e-03   1.8262320e-04
 -2.2025516e-03   5.2672275e-04
 -8.8027038e-04   9.0709096e-04
 -2.9498184e-04   4.8799781e-04
 -5.6427019e-04   4.5117133e-04
 -7.6879805e-04   8.3691848e-04
 -8.1620022e-04   2.7958080e-04
 -2.1812946e-03   4.6524996e-04
  4.6756052e-04   5.8772112e-04
 -1.0903659e-03   4.1071526e-04
 -5.5249315e-04   7.2371750e-04
  4.0865028e-03   5.5221876e-04
  2.3181313e-03   4.6634258e-04
  2.5680149e-03   3.4300846e-04
  2.4881592e-04   6.2588014e-04
  1.3726574e-05   4.3139726e-04
 -6.7980721e-04   4.2706894e-04
  1.7876575e-03   3.3820421e-04
 -7.3361129e-04   6.4120902e-04
  1.0632555e-03   5.6886353e-04
 -1.5511998e-03   8.6200604e-04
  5.6934059e-01   1.1713017e-04
  9.8681881e-04   8.1325049e-04
 -2.7880009e-04   3.7368579e-04
  1.5764173e-04   4.9540529e-04
 -8.2969789e-05   3.5502427e-04
  3.5453844e-04   1.2658749e-04
  4.7433162e-03   5.7325279e-04
  7.1062557e-02   1.6314146e-04
  5.4633880e-01   3.2363692e-04
 -1.0902954e+00   2.9552967e-04
  7.7998805e-01   8.9377863e-05
 -8.0539696e-02   4.0673294e-05
  5.5960590e-01   3.1099360e-05
 -4.9722412e-01   6.2938561e-05
 -3.7560299e-01   7.0572067e-05
 -5.1680452e-01   3.2903608e-05
  1.7109722e-03   3.6068881e-04
  4.8824486e-01   5.1430598e-05
  1.4276319e+00   4.7872151e-04
 -3.4404653e-01   4.7163057e-04
  2.9938543e-01   6.8033281e-05
 -3.4372102e-02   9.4763731e-05
  2.0010569e-04   2.4762086e-04
  1.0740503e+00   1.6228961e-04
 -4.6510431e-01   1.3079676e-04
 -1.2469616e+00   2.7275264e-05
  2.1861902e-02   1.5675760e-04
  3.2062641e-01   2.3117824e-04
 -5.4616277e-04   6.8681774e-04
  1.9197203e+00   1.5303411e-04
  1.2668185e+00   2.4535583e-04
  4.4892785e-01   1.3782624e-04
 -1.8378179e+00   1.0655601e-04
  6.9856159e-02   3.9801285e-05
  3.0549900e-03   4.6733583e-04
 -3.1912260e-02   1.8735483e-04
  4.9223354e-01   6.7490240e-05
  1.3263402e+00   4.3693313e-04
  2.1365964e-01   7.5011376e-05
 -6.0717392e-01   3.6724505e-04
  1.9180752e-01   9.2522016e-05
  9.7671576e-02   2.4420154e-04
  2.7974692e-01   6.8134384e-04
  2.4712276e-01   2.0557220e-04
 -4.9907058e-03   3.6860249e-04
  4.3880399e-03   7.1423470e-05
 -9.6339900e-05   1.7005454e-04
  4.5260962e-02   4.7509535e-04
 -8.0014521e-04   4.6045726e-04
  2.5659220e-03   3.3652110e-04
 -3.9664865e-01   1.7618219e-04
  5.9160758e-02   1.7208270e-04
 -2.9462436e-01   2.5566606e-04
 -3.6611941e-02   2.0322826e-04
 -7.1396410e-02   3.0319919e-04
 -1.5671058e-02   3.5261663e-04
  7.4298078e-01   1.6289485e-04
  2.7180430e-02   2.5681983e-04
  2.1566477e-02   1.4985603e-04
 -2.2063673e-01   7.9213445e-05
  1.7715135e-01   5.6003232e-04
  5.3652620e-01   1.0798121e-04
 -6.2504254e-02   1.9878430e-04
  2.2502335e-02   4.6920203e-04
 -2.4324140e-02   2.1434612e-04
  5.3997344e-01   6.8768574e-04
 -1.6064127e-01   6.8686635e-04
 -1.1449569e-01   2.3746715e-04
 -1.3442898e-02   1.1141747e-04
 -3.6474389e-01   8.8130357e-05
 -3.9583659e-01   4.6626781e-04
  4.1377731e-02   6.8716137e-05
  3.4845562e-03   1.0423099e-03
 -2.9381805e-03   2.6179687e-04
  3.8554740e-01   3.8920739e-04
 -1.1524071e-02   5.6136312e-04
 -6.1785832e-02   1.1523579e-04
  4.2850876e-01   1.2805731e-04
 -1.3479428e-01   3.8825098e-04
 -1.0978356e-03   2.8930683e-04
 -2.2357506e-01   2.2412164e-04
 -7.3952018e-05   2.1218712e-04
  4.9074800e-03   4.9245707e-04
  1.0693556e-03   5.5097952e-04
  2.3407898e-05   4.9074116e-04
 -2.2123253e-01   2.7358509e-04
 -2.5610104e-02   2.5150072e-04
 -2.3191512e-01   3.3170363e-04
  2.4516003e-03   9.3391462e-04
 -4.7754310e-03   3.2683613e-04
  1.1326820e-01   3.6319287e-04
 -3.5817411e-03   2.6404820e-04
  1.7654203e-03   4.0133315e-04
 -4.6468256e-03   4.4888892e-04
  1.9955628e-03   3.8124670e-04
  1.2754628e-01   2.0207954e-04
  1.8435070e-01   2.3878798e-04
  5.9888419e-02   1.2958670e-04
 -2.4491815e-01   6.1850202e-05
  1.1477285e-01   4.6154124e-05
 -6.5044278e-01   1.3546340e-05
 -2.9270845e-03   1.0873956e-04
  1.7289548e-01   1.0036354e-04
  2.2657871e-01   2.6764569e-04
  3.6638317e-01   2.4331492e-04
 -8.7999813e-02   1.3348396e-04
  6.2343650e-03   7.7315133e-05
 -1.0350144e-03   2.3629666e-04
 -2.3830105e-02   2.8278137e-04
  6.1593280e-04   2.5430031e-04
  8.9540750e-02   5.8168563e-04
 -3.7934966e-03   9.8873097e-05
  1.8450187e-01   1.8457772e-04
 -2.1409553e-02   3.1792515e-05
 -7.2765879e-02   1.0600811e-04
  6.0203992e-04   1.5092221e-04
  7.5288222e-04   4.4657546e-04
  1.3094512e-05   2.6347183e-04
  3.3650845e-01   1.4809601e-04
  1.5805724e-01   1.1676831e-04
  5.4114199e-01   5.6301938e-05
  6.2918693e-02   1.9313727e-04
 -7.5619906e-02   5.8148336e-04
 -2.5219570e-03   5.5485184e-04
  1.6512245e-01   6.6627777e-05
 -1.4428366e-03   3.3316255e-04
  2.0648893e-03   3.3126320e-04
  5.1093334e-01   2.8583055e-04
  5.6193131e-01   2.7763657e-04
 -4.3687563e-02   6.8330142e-04
  4.0503949e-04   2.9872858e-04
  3.0197211e-02   3.9063965e-04
  8.5052803e-02   8.3009823e-04
  1.2731831e-02   1.6942680e-03
 -3.1293938e-03   1.6126788e-04
  4.4549943e-04   5.5000931e-04
  1.9096275e-03   2.2446245e-04
 -3.0415468e-03   1.7082863e-03
  1.1272560e-01   1.4593878e-03
 -1.3044912e-03   3.1161643e-04
  5.0666684e-04   6.8706420e-04
 -3.5423250e-04   1.5314011e-04
  9.8471961e-04   4.4087719e-04
 -9.6982170e-04   4.8785281e-04
 -5.1585482e-03   3.0669093e-04
  3.6236926e-03   1.1226385e-03
  2.1369706e-05   5.6892552e-04
  1.7391327e-03   3.0666517e-04
  3.1751656e-04   1.9105246e-04
 -3.2412284e-03   4.0308994e-05
  1.7246117e-03   7.0013804e-04
  3.2357115e-05   4.4035006e-04
  1.2509918e-04   6.3226046e-04
 -2.6464893e-04   3.8293833e-04
 -1.0094290e-03   5.8714388e-04
  6.2532572e-04   2.5053235e-04
  3.5906193e-04   2.2432665e-04
 -2.8018031e-04   4.3967841e-04
  4.4028115e-04   3.9414558e-04
 -2.7706190e-03   5.6513050e-04
  2.3206530e-04   6.6446426e-04
 -1.3749691e-03   2.4343999e-04
 -2.4346737e-03   4.1004719e-04
  2.2311218e-03   6.3058839e-04
  2.8775716e-03   3.9409107e-04
  3.2999208e-03   3.5145259e-04
  1.8036704e-03   2.0732592e-04
  1.2021310e-03   4.6524857e-04
 -4.0723300e-03   1.3713029e-04
 -2.7567195e-04   2.7123018e-04
  5.6697120e-04   7.8668317e-04
 -3.8389990e-06   5.7017483e-04
  3.6328430e-03   5.1417184e-04
 -1.8663540e-03   3.8167581e-04
 -2.8433569e-04   4.5601191e-04
 -1.4905774e-03   4.5481164e-04
 -1.2572119e-03   5.2607857e-04
 -1.0304344e-03   3.6024526e-04
 -9.1418362e-05   7.8815519e-04
 -1.1315702e-03   4.5592446e-04
  3.4793519e-04   3.5632824e-04
 -1.9466551e-03   9.7148720e-04
  8.9520740e-04   4.1987744e-04
  2.0373769e-01   2.2238230e-04
  4.5725025e-02   1.2112983e-04
  4.3777505e-01   6.5050001e-05
  1.2681761e+00   1.1515956e-04
  1.9765787e-02   7.3209529e-05
 -4.7598839e-01   1.0466626e-06
  8.3434922e-01   6.6527035e-05
 -2.4145012e+00   1.0662359e-04
  8.0147082e-01   2.9815907e-05
 -4.3604407e-02   2.8912941e-04
 -7.1825475e-01   1.6030484e-04
 -1.3239264e-01   1.4658489e-04
 -5.6265891e-02   2.4302131e-04
 -1.4798565e+00   3.0407784e-04
  3.8912517e-03   3.2535134e-04
  4.8467898e-01   4.8903289e-04
 -3.2163149e-01   2.6939425e-04
  1.7100029e-02   1.2960745e-04
 -1.1395632e+00   1.0818632e-04
 -5.2780756e-03   4.1953960e-04
 -1.0485978e+00   1.9690176e-04
  7.4765150e-04   5.0947547e-04
 -3.9928529e-02   2.1507278e-04
 -1.6862495e+00   1.0251169e-04
 -2.4715632e-01   1.0807219e-04
 -1.8159886e-01   4.1851239e-05
 -4.9654993e-01   1.2013134e-04
 -6.5863001e-01   1.9234825e-04
  8.0003651e-05   4.1801282e-04
 -1.7186712e-02   1.8736479e-05
 -4.4155347e-01   3.9665608e-04
 -7.3132467e-01   6.5504166e-04
 -1.3905615e-01   1.4433061e-04
 -6.9340150e-04   2.1558786e-04
 -5.1600820e-01   3.8956222e-04
  6.9600433e-02   7.0844503e-04
 -2.9873343e-02   2.2907324e-04
  4.5562282e-01   7.1453594e-04
  9.3094300e-04   1.6692322e-04
 -4.9001136e-04   3.1372567e-04
  1.9460088e-01   1.5502421e-03
 -6.6385441e-04   7.3582912e-04
 -5.6954520e-04   7.0616079e-04
  2.1823536e-01   2.8030717e-04
  1.4884789e-02   3.5558277e-04
 -1.5578703e-03   5.2434154e-04
 -7.4064592e-03   1.2576913e-04
  3.8796812e-01   2.6023659e-04
  7.8834395e-04   3.2803757e-04
  7.8406185e-04   1.7935256e-04
 -1.2965755e-03   4.2588435e-04
  1.2260326e-04   2.0332930e-04
  1.7945543e-04   3.6598073e-04
  1.9875111e-03   8.6874200e-04
  1.8621895e-03   4.3242605e-04
  2.0716138e-02   6.0368801e-04
 -4.1661527e-02   2.1523781e-04
  1.9034635e-03   2.2111258e-04
  2.2268787e-04   3.7499299e-04
  1.4899301e-03   3.0551749e-04
  1.7597010e-04   2.5338234e-04
  2.0356979e-03   1.6160629e-04
 -1.9393378e-03   1.5429375e-04
 -2.0800282e-03   8.3012425e-04
 -1.4661785e-03   5.5636221e-04
 -3.4379268e-03   4.5110623e-04
  1.0984372e-04   3.4996780e-04
  3.5095569e-02   2.7012426e-04
  2.4644271e-03   2.7924805e-04
  6.3320570e-02   7.7487639e-05
 -1.6264567e-02   9.8208839e-05
  4.3605990e-03   4.3014210e-04
 -5.8184040e-04   4.0605082e-04
 -3.7495855e-02   1.3070887e-04
  2.8625550e-03   1.0919482e-03
  3.5458026e-03   8.0667547e-04
 -4.4044200e-03   4.7277010e-04
  6.6948903e-04   5.0821621e-04
  1.4793829e-02   2.8531498e-04
 -5.1429408e-05   4.9269450e-04
  3.2677157e-03   1.1308199e-04
 -7.7497668e-04   8.7233842e-04
  4.9018784e-04   3.3930401e-04
 -1.2337785e-03   8.8980043e-04
  1.4003247e-04   5.0034176e-04
 -2.9082689e-03   3.1505059e-04
 -5.1642442e-04   4.1667582e-04
 -1.4120563e-04   3.5757376e-04
 -1.0817847e-03   3.4439930e-04
 -1.2879991e-02   1.7330247e-04
  3.1986861e-03   3.1804657e-04
 -2.4803735e-02   2.8567659e-04
 -2.3387731e-03   3.1329104e-04
  1.8839502e-01   1.9322612e-04
  6.5592267e-02   1.6554947e-04
  6.8294001e-04   3.1387640e-04
 -8.1336487e-04   2.6523019e-04
 -1.5765317e-03   4.7219929e-04
 -5.9973123e-03   5.8468053e-04
 -8.7968215e-02   4.9779791e-04
  3.1190778e-03   4.1072330e-04
 -6.5714109e-04   3.9462093e-04
 -1.2809206e-03   4.1250192e-04
 -3.9827637e-03   2.6012131e-04
 -3.5299696e-02   2.5337460e-04
  5.0265153e-05   3.6725737e-04
  1.0842926e-02   2.2611953e-04
  1.4449271e-02   4.0902317e-04
  7.0895342e-04   2.2915390e-04
  1.6678834e-03   7.7135366e-04
 -1.7860268e-03   2.7111935e-04
 -3.0604482e-03   1.7474405e-04
 -5.8947536e-03   7.8677404e-05
 -1.3296375e-03   1.7854874e-04
  3.6237258e-02   4.1519568e-04
 -3.2915950e-03   3.5614081e-04
 -5.5934819e-03   3.9914585e-04
  5.0768439e-02   5.6874036e-05
 -7.0618716e-04   6.1281503e-04
  3.1796640e-03   5.6816882e-04
  4.1785374e-01   2.3936857e-04
  6.7283475e-04   3.1489762e-04
 -2.9948018e-03   6.4483978e-04
 -4.4297814e-02   7.4841890e-05
 -6.5701000e-02   2.6623806e-04
  1.0096970e-03   7.3444395e-04
 -3.7038015e-05   2.3585187e-04
  1.2998858e-02   3.1257540e-04
 -3.0342408e-04   6.9788180e-04
 -2.3264147e-07   4.3683389e-04
  1.5993767e-03   4.8416763e-04
  1.8441797e-03   4.0797264e-04
 -1.2488893e-04   3.3675061e-04
  3.2026395e-01   2.5679474e-04
  1.9496632e-03   2.7249267e-04
 -2.1994968e-03   1.4959116e-04
 -8.6300619e-02   2.1034887e-04
 -7.4584264e-01   3.0703894e-05
  2.5182953e-01   2.2340016e-04
  2.1459901e-01   1.3390224e-04
 -1.8224131e-01   2.2146773e-05
 -1.5550330e-02   7.9659687e-05
 -2.3439272e-01   1.8489278e-04
 -1.6256644e-03   1.7748136e-04
 -1.8795024e-03   3.8934633e-04
 -4.8062452e-03   3.1612601e-04
 -2.7814433e-01   8.5709657e-04
  3.2359887e-05   4.5165874e-04
  6.9753796e-02   9.4633091e-05
 -3.5090908e-01   1.0306254e-04
 -3.9011396e-02   7.4651820e-05
  3.2908882e-03   2.8204449e-04
  6.6908094e-04   1.7136190e-04
  1.6544804e-03   6.2122795e-04
  8.7021157e-02   9.6481454e-05
 -9.9911705e-02   1.6814066e-04
 -4.2918357e-03   6.1882849e-05
 -1.2638649e-01   2.1651406e-04
  1.9722264e-02   2.0258669e-04
  5.9569726e-04   1.9161632e-04
  6.4915647e-03   7.3419826e-04
 -4.4109341e-02   6.9675640e-05
 -3.5235338e-02   5.2174431e-04
 -7.5038664e-02   2.5472217e-04
 -1.1311748e-01   3.8704375e-04
  1.1990591e-03   1.2359026e-04
  6.9158147e-03   7.0745416e-04
  2.5342108e-04   4.7082599e-04
  3.5130046e-02   2.5881713e-04
  1.1710762e-03   3.8931897e-04
  5.5693612e-03   6.3026173e-04
 -1.9890635e-04   6.4658746e-04
  1.0898528e-01   4.1252293e-04
 -3.6762082e-03   6.6077494e-04
  4.2785211e-03   5.3703791e-04
  1.2652864e-04   4.4686283e-04
 -1.5805096e-03   3.0965504e-04
 -2.5754690e-03   5.6367530e-04
  6.1879435e-04   2.7330607e-04
 -2.9050797e-04   3.5995184e-04
  8.8497350e-04   5.2502390e-04
 -3.4310692e-04   3.4829680e-04
 -5.8221107e-04   8.1632141e-04
 -1.1445297e-02   3.8765432e-04
 -1.5242300e-03   5.0873816e-04
  6.1819260e-04   2.5402752e-04
 -1.5600812e-01   4.1008418e-04
  2.1237968e-03   6.0919498e-04
  6.7997025e-04   6.7248067e-04
  8.9003169e-04   5.9480016e-04
 -4.7599073e-04   1.9594531e-04
  1.0137681e-03   4.2688588e-04
  2.1046589e-04   6.8947807e-04
 -3.7792293e-04   6.3011592e-04
  2.1098731e-03   7.0723816e-04
 -7.8257079e-05   5.1085674e-04
  1.0283919e-04   2.6038449e-04
  6.3720980e-04   2.1808088e-04
  1.2013890e-03   9.1462884e-05
 -3.4301192e-04   4.7048423e-04
 -1.4876720e-04   6.9583912e-04
 -7.8061933e-04   5.9093116e-04
  3.1004380e-04   4.6602372e-04
  8.0659485e-04   2.6292019e-04
 -1.1458282e-03   1.8055929e-04
  1.8026854e-05   5.5514387e-04
  1.1504925e-03   9.8783814e-04
  3.5864078e-03   5.6501821e-04
  3.7394851e-04   6.5475097e-04
 -4.7951336e-03   2.9880929e-04
 -3.4939285e-04   3.7393783e-04
  1.7325766e-04   7.7292178e-04
 -1.9866880e-03   4.9609237e-04
 -1.3386939e-03   6.5285340e-04
 -2.8744298e-03   3.9044378e-04
  6.0754555e-04   5.9838983e-04
  1.9493364e-04   4.8172829e-04
 -1.8794947e-04   3.1612930e-04
 -5.5520290e-05   2.8998067e-04
 -3.1257269e-04   6.2962383e-04
 -8.1643538e-04   3.6118989e-04
 -1.1320003e+00   8.4007668e-05
 -1.2321153e-01   1.6705155e-04
 -9.5501520e-02   9.3014365e-05
 -4.3467186e-02   7.4501171e-05
 -6.5942335e-01   2.7294223e-05
 -7.4741453e-02   9.5755735e-05
 -1.0639186e-01   5.2281583e-05
 -2.1768202e-01   1.5484048e-04
  1.7414358e-01   2.2222202e-04
 -3.8078368e-02   4.8741091e-05
 -2.7499703e-01   2.2802748e-04
  4.9874834e-03   4.7812000e-04
  4.3559419e-03   2.4198831e-04
  2.7441400e-01   4.8058128e-04
 -2.5120366e-01   2.0045554e-04
  5.4429668e-01   3.0503435e-05
 -3.3027496e-02   1.4030977e-04
  2.9028462e-02   7.7538454e-05
  4.5218763e-01   2.8493133e-04
  1.4461574e-01   2.4516773e-04
  2.8481192e-04   4.0298473e-04
 -4.2645997e-01   6.5229862e-05
 -2.5175792e-01   1.0835409e-04
 -5.2050891e-04   4.0649981e-04
  8.2416572e-02   7.1309849e-05
  2.5743473e-01   1.4454190e-04
 -1.9518044e-02   3.6652482e-04
 -1.2240022e-02   4.6613906e-04
  7.2688937e-02   3.7931914e-05
  3.3691169e-03   2.5047263e-04
 -1.5097862e-01   5.2008481e-04
  3.7100255e-02   1.4412412e-04
  9.1394886e-02   3.2125830e-04
 -6.9666094e-01   6.7457953e-04
 -2.1593864e-01   8.5128733e-04
  4.6819413e-01   7.2589864e-05
  2.2161985e-03   2.4204442e-04
 -1.8590148e-01   4.6755746e-04
  1.4188061e-03   3.6452184e-04
 -1.9241960e-01   4.5044962e-04
  3.8914972e-03   1.2556957e-03
 -1.6546885e-03   5.9246289e-04
  1.7641187e-03   6.2787556e-04
 -1.8073553e-02   2.4000838e-04
 -5.9815828e-02   8.3256244e-05
  1.9175779e-02   3.2412983e-04
 -1.6462206e+00   1.1934694e-04
 -7.6676744e-01   3.7470550e-04
  1.5191072e-01   9.7012577e-05
  9.2316198e-04   4.3676046e-04
 -4.6269420e-01   2.2536320e-04
 -1.7620369e+00   2.5156504e-04
 -7.0418634e-02   2.3373865e-04
 -2.3197122e-01   3.6940232e-04
 -2.9614118e-01   4.3419510e-04
  9.1164460e-04   4.5569151e-04
 -9.3354974e-03   6.1687786e-04
  4.5741093e-03   1.6883580e-04
 -1.1830532e-03   5.8057479e-04
  3.3102077e-01   1.7657790e-04
 -1.4460495e+00   3.6233262e-04
  5.0690782e-01   8.4829400e-05
  3.6265436e-01   2.7664247e-04
 -4.8539475e-02   2.2767222e-04
 -2.0957710e-03   9.8223065e-04
  7.9709180e-03   1.9259924e-04
 -1.0684179e-01   3.0656916e-04
 -7.6843446e-01   4.9697008e-04
 -8.7655419e-03   1.5508659e-04
  2.1713355e-01   2.0455979e-04
 -1.2943454e-01   1.1519938e-04
 -1.0506114e-02   7.4602227e-04
 -1.4573611e-01   1.1444622e-05
 -1.8041991e-03   5.1562645e-04
 -5.5864438e-02   5.3375086e-04
  1.9855109e-01   4.2601512e-04
 -1.0651828e-03   1.5280981e-04
 -3.9221236e-01   6.6262722e-04
 -6.7299627e-02   3.3402422e-03
  3.0482069e-03   1.5029249e-04
  9.6442914e-03   5.2433967e-04
 -1.2210588e-02   1.1380333e-03
  3.5466235e-02   4.5419505e-04
 -2.3305021e-02   9.9407183e-04
 -1.1998573e-03   1.4749878e-04
 -2.7372504e-03   3.7752619e-04
  3.5116514e-03   9.1418618e-04
 -3.0531564e-03   1.4165521e-03
 -1.1902639e-02   7.4167829e-04
  3.1854320e-04   7.9667277e-04
  2.3548407e-02   1.3870583e-04
  7.1226999e-02   3.8083494e-04
 -1.1775658e+00   6.6962210e-05
 -9.2467383e-02   1.0816423e-03
 -4.4905718e-02   3.5092214e-04
 -5.6405840e-03   3.5335773e-04
  6.3116247e-05   8.8256400e-04
  1.5892096e-04   4.5453737e-04
  2.2887944e-03   2.7740229e-04
 -2.6770367e-04   2.5335944e-04
  4.1865124e-03   6.5312744e-04
  2.5146983e-05   4.9979350e-04
  2.1649186e-04   5.0765550e-04
 -5.1704361e-03   3.2929043e-04
  9.0506591e-04   5.9864444e-05
 -8.9943953e-02   7.0302741e-04
 -6.2027280e-03   1.9530280e-04
  8.1156183e-04   9.2653849e-04
 -1.0492261e-03   7.5583823e-04
 -3.4958285e-03   1.1151201e-03
  1.2316749e-02   1.1998676e-03
  2.1038842e-03   1.1669103e-03
 -5.0803865e-05   1.8634948e-04
 -1.1841123e-02   7.9648144e-04
  1.0801594e-03   2.3980797e-04
  9.3819899e-04   2.9135260e-04
  5.9759215e-04   3.3641123e-04
  6.5266304e-03   3.0249523e-04
 -7.8850036e-04   1.3959181e-04
  1.0063226e-03   3.4325477e-04
  7.5970468e-04   6.8365398e-04
 -4.2110938e-04   3.6874739e-04
  2.4674509e-03   2.9985805e-04
 -9.6356758e-04   4.2932006e-04
  5.6639099e-03   1.5879280e-04
  8.5174819e-05   4.0080780e-04
 -3.8545751e-03   3.0204200e-04
 -1.5579988e-03   5.0121371e-04
  3.5529400e-03   2.3108907e-04
 -1.8388150e-03   5.9234368e-04
 -5.0655269e-04   1.2179096e-03
 -4.9050810e-04   2.0251877e-04
  4.0326599e-04   3.2154855e-04
 -6.6630263e-04   6.9559616e-04
  8.4820547e-04   7.0356182e-04
  8.2132599e-04   5.2433211e-04
  2.6503656e-04   5.3687487e-04
 -1.3971949e-03   7.0646621e-04
  3.2537996e-03   7.2597322e-04
 -1.0869340e-03   4.8758686e-04
  4.7792721e-04   3.3537226e-04
 -4.4384130e-04   3.9098665e-04
  7.4314518e-04   6.0337066e-04
 -1.9763883e-03   2.0876434e-04
  9.1260334e-04   4.5374373e-04
 -5.1814863e-03   3.0958789e-04
  5.2488954e-03   2.6335809e-04
 -9.7799359e-04   8.3860359e-04
  1.8167455e-04   3.0893984e-04
  7.6047203e-05   5.3102220e-04
 -1.2238440e-03   4.6269951e-04
 -1.3692385e-03   3.7988319e-04
  2.3517162e-04   4.0232835e-04
 -2.1806076e-05   5.1256194e-04
 -2.9893150e-04   2.8964801e-04
  2.3202074e-03   4.1010149e-04
 -1.0618541e-03   1.8436345e-04
  4.0818326e-04   2.8556376e-04
 -1.3320665e-03   5.9628906e-04
  1.2779068e-03   2.1184821e-04
  6.7562086e-04   4.3291223e-04
  1.2232157e-03   7.0399506e-04
  1.2398819e-03   6.1279861e-04
 -1.8537019e-03   7.7836652e-04
 -1.8841302e-03   4.0091565e-04
 -1.6173245e-03   7.6742243e-04
  1.4633524e-03   2.0918209e-04
  2.9086429e-04   7.0695934e-04
  3.4262969e-03   5.0852355e-04
 -3.1139690e-03   1.2081334e-04
  2.8519516e-04   2.9317493e-04
 -1.8948558e-04   2.9134715e-04
 -4.7303987e-05   2.4873667e-04
  6.3575583e-04   3.0010747e-04
  1.0262325e-03   6.0500632e-05
 -2.3369091e-03   1.6956819e-04
  2.7364393e-04   3.4092960e-04
  1.5612555e-01   8.5345207e-04
  4.5894930e-04   2.5655978e-04
  1.7056985e-04   2.0010967e-04
 -4.5250571e-01   5.4338670e-05
  2.4120806e-02   1.1343603e-04
  4.2414955e-05   3.0547476e-04
 -6.7646365e-04   4.6639316e-04
  1.2766666e-04   9.8742207e-04
 -1.6941788e-03   3.4694147e-04
 -5.6125643e-03   7.7733275e-04
  5.8050022e-02   5.2370556e-04
 -6.9888119e-05   3.4442113e-04
 -1.5930714e-01   2.6934250e-04
  3.3544214e-03   3.8413692e-04
  1.1959186e-04   3.4967321e-04
 -1.2040918e-03   1.9746344e-04
  1.6526824e-04   1.7069427e-04
 -1.3536748e-03   4.8487907e-04
  1.7417502e-03   2.7152261e-04
 -4.4780722e-04   5.1992357e-04
 -2.2264278e-04   5.6297076e-04
 -2.4826636e-03   1.8835055e-04
 -4.2949561e-03   1.1979935e-04
  4.0469795e-01   8.0153208e-05
 -3.8285006e-04   2.1245868e-04
 -1.8850614e-04   5.9045007e-04
  1.2788643e-03   3.4090446e-04
 -3.3718432e-04   2.3623118e-04
  2.0825712e-04   7.2633650e-04
 -1.4347261e-01   6.9204303e-05
  2.6328119e-03   1.1581232e-04
 -1.6038767e-04   3.0518428e-04
  1.6972567e-04   5.0354213e-04
  4.4598302e-05   7.6401653e-04
  2.3480395e-03   2.4065340e-04
 -2.6413202e-03   7.3051528e-04
 -1.2467707e-02   2.0630770e-04
 -1.3375436e-03   4.7292575e-04
  1.7875736e-03   6.5018772e-04
  2.3345291e-03   5.3876830e-04
 -1.5558081e-03   4.7918156e-04
  1.3678857e-04   5.9230084e-04
  2.0069493e-02   4.4185700e-04
  8.8959110e-01   1.8201437e-04
  2.7473830e-04   2.4579253e-04
  1.3442589e+00   3.7673704e-04
 -5.1082414e-02   1.8014401e-04
  3.1967944e-01   4.4740915e-05
 -1.7409853e-04   2.3112803e-04
  1.1237383e-01   2.7819496e-04
  1.4842795e+00   9.3987313e-05
  3.9538115e-01   4.5531956e-04
  4.1069712e-02   1.9920086e-04
  2.9266560e-01   3.5485963e-04
 -2.6063624e-04   1.4747691e-04