
***************************************************************
*                 Welcome to use GPUMD                        *
*    (Graphics Processing Units Molecular Dynamics)           *
*                     Version 3.8                             *
*              This is the nep executable                     *
***************************************************************


---------------------------------------------------------------
GPU information:
---------------------------------------------------------------

number of GPUs = 1
Device id:                   0
    Device name:             NVIDIA GeForce RTX 4090
    Compute capability:      8.9
    Amount of global memory: 23.6431 GB
    Number of SMs:           128

---------------------------------------------------------------
Started running nep.
---------------------------------------------------------------


---------------------------------------------------------------
Started reading nep.in.
---------------------------------------------------------------

Input or default parameters:
    (default) model_type = potential.
    (default) calculation mode = train.
    (input)   use NEP version 4.
    (input)   number of atom types = 2.
        (default) type 0 (Cu with Z = 29) has force weight of 1.
        (default) type 1 (Se with Z = 34) has force weight of 1.
    (default) will not add the ZBL potential.
    (input)   radial cutoff = 7 A.
    (input)   angular cutoff = 5 A.
    (input)   n_max_radial = 8.
    (input)   n_max_angular = 6.
    (input)   basis_size_radial = 12.
    (input)   basis_size_angular = 12.
    (input)   l_max_3body = 4.
    (input)   l_max_4body = 2.
    (input)   l_max_5body = 0.
    (input)   number of neurons = 50.
    (default) lambda_1 = -1.
    (default) lambda_2 = -1.
    (input)   lambda_e = 1.
    (input)   lambda_f = 1.
    (input)   lambda_v = 0.2.
    (default) lambda_shear = 1.
    (default) force_delta = 0.
    (input)   batch size = 1000.
    (input)   population size = 50.
    (input)   maximum number of generations = 50000.
Some calculated parameters:
    number of radial descriptor components = 9.
    number of angular descriptor components = 35.
    total number of descriptor components = 44.
    NN architecture = 44-50-1.
    number of NN parameters to be optimized = 4601.
    number of descriptor parameters to be optimized = 832.
    total number of parameters to be optimized = 5433.

---------------------------------------------------------------
Finished reading nep.in.
---------------------------------------------------------------


---------------------------------------------------------------
Started reading train.xyz.
---------------------------------------------------------------

Number of configurations = 370.
Number of devices = 1
Number of batches = 1
Hello, I changed the batch_size from 1000 to 370.

Batch 0:
Number of configurations = 370.

---------------------------------------------------------------
Constructing train_set in device  0.
Total number of atoms = 104820.
Number of atoms in the largest configuration = 596.
Number of configurations having virial = 370.
Radial descriptor with a cutoff of 7 A:
    Minimum number of neighbors for one atom = 63.
    Maximum number of neighbors for one atom = 100.
Angular descriptor with a cutoff of 5 A:
    Minimum number of neighbors for one atom = 20.
    Maximum number of neighbors for one atom = 44.
---------------------------------------------------------------


---------------------------------------------------------------
Started reading test.xyz.
---------------------------------------------------------------

Number of configurations = 170.

---------------------------------------------------------------
Constructing test_set in device  0.
Total number of atoms = 50240.
Number of atoms in the largest configuration = 596.
Number of configurations having virial = 170.
Radial descriptor with a cutoff of 7 A:
    Minimum number of neighbors for one atom = 63.
    Maximum number of neighbors for one atom = 95.
Angular descriptor with a cutoff of 5 A:
    Minimum number of neighbors for one atom = 20.
    Maximum number of neighbors for one atom = 40.
---------------------------------------------------------------


---------------------------------------------------------------
Time used for initialization = 0.104942 s.
---------------------------------------------------------------


---------------------------------------------------------------
Started training.
---------------------------------------------------------------

Step    Total-Loss L1Reg-Loss L2Reg-Loss RMSE-E-Train RMSE-F-Train RMSE-V-Train RMSE-E-Test  RMSE-F-Test  RMSE-V-Test  
100     0.09978    0.01150    0.02787    0.00126      0.05746      0.00847      0.00152      0.05696      0.01057      
200     0.09977    0.01150    0.02786    0.00125      0.05746      0.00846      0.00152      0.05697      0.01055      
300     0.09976    0.01149    0.02786    0.00126      0.05746      0.00846      0.00152      0.05696      0.01057      
400     0.09974    0.01149    0.02785    0.00126      0.05746      0.00844      0.00152      0.05697      0.01054      
500     0.09974    0.01148    0.02785    0.00127      0.05745      0.00847      0.00153      0.05696      0.01058      
600     0.09973    0.01148    0.02784    0.00125      0.05745      0.00849      0.00151      0.05695      0.01059      
700     0.09972    0.01148    0.02784    0.00125      0.05746      0.00844      0.00152      0.05696      0.01054      
800     0.09972    0.01148    0.02784    0.00126      0.05745      0.00844      0.00152      0.05696      0.01053      
900     0.09971    0.01148    0.02784    0.00126      0.05745      0.00841      0.00153      0.05696      0.01048      
1000    0.09971    0.01147    0.02783    0.00126      0.05745      0.00843      0.00153      0.05696      0.01051      
1100    0.09970    0.01146    0.02783    0.00127      0.05745      0.00842      0.00154      0.05696      0.01051      
1200    0.09969    0.01146    0.02783    0.00126      0.05745      0.00841      0.00153      0.05696      0.01048      
1300    0.09968    0.01146    0.02782    0.00125      0.05746      0.00843      0.00152      0.05697      0.01052      
1400    0.09967    0.01145    0.02782    0.00125      0.05746      0.00843      0.00151      0.05697      0.01051      
1500    0.09967    0.01145    0.02782    0.00126      0.05745      0.00844      0.00153      0.05697      0.01053      
1600    0.09965    0.01144    0.02781    0.00125      0.05745      0.00844      0.00152      0.05696      0.01052      
1700    0.09964    0.01144    0.02781    0.00126      0.05744      0.00847      0.00152      0.05694      0.01059      
1800    0.09963    0.01143    0.02781    0.00126      0.05744      0.00846      0.00152      0.05695      0.01057      
1900    0.09962    0.01142    0.02780    0.00126      0.05745      0.00845      0.00152      0.05695      0.01055      
2000    0.09961    0.01142    0.02780    0.00126      0.05745      0.00845      0.00152      0.05695      0.01057      
2100    0.09960    0.01141    0.02780    0.00126      0.05744      0.00845      0.00153      0.05695      0.01054      
2200    0.09960    0.01141    0.02779    0.00126      0.05745      0.00841      0.00152      0.05697      0.01048      
2300    0.09958    0.01141    0.02779    0.00126      0.05745      0.00842      0.00152      0.05695      0.01049      
2400    0.09959    0.01141    0.02779    0.00127      0.05742      0.00846      0.00155      0.05694      0.01056      
2500    0.09958    0.01141    0.02778    0.00125      0.05744      0.00845      0.00152      0.05695      0.01054      
2600    0.09957    0.01141    0.02778    0.00125      0.05743      0.00847      0.00152      0.05694      0.01058      
2700    0.09956    0.01140    0.02777    0.00126      0.05743      0.00846      0.00152      0.05695      0.01055      
2800    0.09954    0.01140    0.02777    0.00125      0.05743      0.00846      0.00152      0.05695      0.01056      
2900    0.09954    0.01140    0.02777    0.00125      0.05743      0.00847      0.00151      0.05695      0.01057      
3000    0.09952    0.01138    0.02776    0.00125      0.05743      0.00847      0.00152      0.05695      0.01056      
3100    0.09952    0.01138    0.02776    0.00125      0.05744      0.00847      0.00151      0.05695      0.01055      
3200    0.09951    0.01137    0.02776    0.00126      0.05743      0.00847      0.00152      0.05693      0.01056      
3300    0.09950    0.01137    0.02775    0.00126      0.05743      0.00846      0.00152      0.05694      0.01055      
3400    0.09950    0.01136    0.02775    0.00126      0.05743      0.00845      0.00152      0.05694      0.01055      
3500    0.09949    0.01136    0.02775    0.00125      0.05745      0.00842      0.00151      0.05695      0.01051      
3600    0.09949    0.01136    0.02774    0.00126      0.05744      0.00845      0.00151      0.05694      0.01053      
3700    0.09948    0.01135    0.02774    0.00125      0.05744      0.00845      0.00151      0.05694      0.01054      
3800    0.09947    0.01135    0.02774    0.00125      0.05743      0.00849      0.00151      0.05694      0.01059      
3900    0.09946    0.01135    0.02773    0.00126      0.05742      0.00847      0.00152      0.05693      0.01059      
4000    0.09945    0.01135    0.02773    0.00124      0.05743      0.00849      0.00150      0.05694      0.01058      
4100    0.09945    0.01134    0.02773    0.00125      0.05744      0.00843      0.00152      0.05694      0.01052      
4200    0.09944    0.01134    0.02772    0.00125      0.05743      0.00845      0.00152      0.05694      0.01054      
4300    0.09943    0.01133    0.02772    0.00126      0.05743      0.00846      0.00152      0.05693      0.01056      
4400    0.09942    0.01132    0.02771    0.00125      0.05745      0.00841      0.00151      0.05695      0.01049      
4500    0.09941    0.01132    0.02771    0.00125      0.05744      0.00844      0.00151      0.05694      0.01052      
4600    0.09940    0.01132    0.02771    0.00126      0.05743      0.00842      0.00152      0.05694      0.01050      
4700    0.09939    0.01131    0.02770    0.00127      0.05743      0.00844      0.00153      0.05693      0.01052      
4800    0.09938    0.01130    0.02770    0.00126      0.05743      0.00844      0.00153      0.05693      0.01053      
4900    0.09937    0.01130    0.02770    0.00126      0.05743      0.00846      0.00152      0.05694      0.01055      
5000    0.09937    0.01130    0.02769    0.00126      0.05742      0.00847      0.00152      0.05693      0.01059      
5100    0.09936    0.01130    0.02769    0.00126      0.05742      0.00847      0.00153      0.05694      0.01058      
5200    0.09935    0.01129    0.02769    0.00126      0.05742      0.00845      0.00153      0.05693      0.01054      
5300    0.09934    0.01129    0.02768    0.00126      0.05742      0.00847      0.00152      0.05693      0.01057      
5400    0.09933    0.01128    0.02768    0.00125      0.05742      0.00847      0.00151      0.05693      0.01059      
5500    0.09932    0.01128    0.02767    0.00125      0.05743      0.00844      0.00151      0.05694      0.01052      
5600    0.09931    0.01127    0.02767    0.00124      0.05744      0.00843      0.00150      0.05695      0.01052      
5700    0.09930    0.01127    0.02766    0.00126      0.05743      0.00845      0.00152      0.05693      0.01053      
5800    0.09930    0.01127    0.02766    0.00125      0.05743      0.00843      0.00152      0.05694      0.01051      
5900    0.09929    0.01126    0.02766    0.00126      0.05742      0.00844      0.00152      0.05693      0.01052      
6000    0.09928    0.01126    0.02766    0.00125      0.05742      0.00849      0.00151      0.05692      0.01056      
6100    0.09928    0.01125    0.02765    0.00126      0.05742      0.00847      0.00152      0.05692      0.01056      
6200    0.09927    0.01125    0.02765    0.00126      0.05742      0.00843      0.00152      0.05693      0.01051      
6300    0.09926    0.01125    0.02765    0.00127      0.05741      0.00845      0.00153      0.05692      0.01054      
6400    0.09925    0.01124    0.02764    0.00126      0.05740      0.00850      0.00153      0.05692      0.01062      
6500    0.09925    0.01124    0.02764    0.00125      0.05742      0.00850      0.00151      0.05693      0.01061      
6600    0.09924    0.01124    0.02764    0.00126      0.05742      0.00847      0.00152      0.05692      0.01057      
6700    0.09923    0.01124    0.02763    0.00127      0.05741      0.00844      0.00153      0.05692      0.01052      
6800    0.09923    0.01123    0.02763    0.00126      0.05742      0.00843      0.00153      0.05693      0.01051      
6900    0.09922    0.01122    0.02763    0.00126      0.05742      0.00844      0.00152      0.05693      0.01053      
7000    0.09921    0.01122    0.02762    0.00126      0.05742      0.00845      0.00152      0.05693      0.01054      
7100    0.09919    0.01121    0.02762    0.00126      0.05742      0.00843      0.00152      0.05692      0.01052      
7200    0.09918    0.01121    0.02762    0.00126      0.05741      0.00845      0.00152      0.05692      0.01056      
7300    0.09917    0.01120    0.02761    0.00125      0.05742      0.00846      0.00151      0.05693      0.01056      
7400    0.09917    0.01120    0.02761    0.00125      0.05741      0.00845      0.00152      0.05693      0.01056      
7500    0.09916    0.01120    0.02760    0.00127      0.05740      0.00845      0.00153      0.05691      0.01054      
7600    0.09916    0.01120    0.02760    0.00126      0.05741      0.00846      0.00152      0.05691      0.01056      
7700    0.09915    0.01120    0.02760    0.00125      0.05740      0.00847      0.00152      0.05691      0.01059      
7800    0.09914    0.01119    0.02759    0.00126      0.05740      0.00849      0.00152      0.05690      0.01059      
7900    0.09913    0.01119    0.02759    0.00126      0.05740      0.00845      0.00153      0.05691      0.01056      
8000    0.09912    0.01119    0.02758    0.00126      0.05740      0.00845      0.00153      0.05691      0.01055      
8100    0.09911    0.01118    0.02758    0.00125      0.05741      0.00846      0.00151      0.05691      0.01055      
8200    0.09910    0.01117    0.02758    0.00126      0.05740      0.00846      0.00152      0.05691      0.01056      
8300    0.09908    0.01117    0.02757    0.00125      0.05740      0.00846      0.00152      0.05690      0.01054      
8400    0.09908    0.01117    0.02757    0.00125      0.05740      0.00848      0.00152      0.05691      0.01059      
8500    0.09908    0.01116    0.02757    0.00125      0.05740      0.00846      0.00152      0.05691      0.01056      
8600    0.09907    0.01116    0.02756    0.00126      0.05740      0.00847      0.00152      0.05690      0.01057      
8700    0.09906    0.01115    0.02756    0.00126      0.05740      0.00846      0.00152      0.05691      0.01057      
8800    0.09905    0.01115    0.02756    0.00126      0.05739      0.00845      0.00152      0.05691      0.01053      
8900    0.09905    0.01115    0.02756    0.00125      0.05740      0.00847      0.00151      0.05690      0.01058      
9000    0.09904    0.01115    0.02755    0.00126      0.05739      0.00844      0.00152      0.05691      0.01053      
9100    0.09903    0.01114    0.02755    0.00125      0.05740      0.00845      0.00152      0.05691      0.01053      
9200    0.09902    0.01114    0.02754    0.00125      0.05740      0.00846      0.00151      0.05691      0.01056      
9300    0.09902    0.01113    0.02754    0.00126      0.05739      0.00847      0.00152      0.05690      0.01058      
9400    0.09901    0.01113    0.02754    0.00126      0.05739      0.00846      0.00153      0.05691      0.01057      
9500    0.09900    0.01112    0.02753    0.00126      0.05740      0.00843      0.00153      0.05690      0.01051      
9600    0.09900    0.01112    0.02753    0.00127      0.05739      0.00845      0.00153      0.05689      0.01055      
9700    0.09899    0.01112    0.02753    0.00126      0.05739      0.00842      0.00153      0.05690      0.01050      
9800    0.09898    0.01112    0.02752    0.00126      0.05739      0.00848      0.00152      0.05691      0.01059      
9900    0.09897    0.01111    0.02752    0.00125      0.05740      0.00847      0.00151      0.05691      0.01056      
10000   0.09897    0.01111    0.02751    0.00126      0.05739      0.00846      0.00152      0.05690      0.01054      
10100   0.09896    0.01110    0.02751    0.00126      0.05739      0.00847      0.00153      0.05690      0.01055      
10200   0.09895    0.01110    0.02751    0.00125      0.05740      0.00846      0.00152      0.05690      0.01056      
10300   0.09894    0.01110    0.02750    0.00126      0.05739      0.00848      0.00152      0.05690      0.01058      
10400   0.09893    0.01109    0.02750    0.00125      0.05739      0.00848      0.00152      0.05689      0.01058      
10500   0.09893    0.01109    0.02750    0.00125      0.05739      0.00848      0.00151      0.05690      0.01057      
10600   0.09893    0.01109    0.02749    0.00125      0.05740      0.00848      0.00151      0.05691      0.01057      
10700   0.09891    0.01108    0.02749    0.00126      0.05739      0.00845      0.00152      0.05690      0.01055      
10800   0.09890    0.01108    0.02748    0.00125      0.05739      0.00844      0.00152      0.05690      0.01052      
10900   0.09889    0.01107    0.02748    0.00126      0.05739      0.00843      0.00152      0.05690      0.01050      
11000   0.09888    0.01107    0.02748    0.00125      0.05739      0.00843      0.00152      0.05690      0.01050      
11100   0.09887    0.01107    0.02747    0.00126      0.05739      0.00844      0.00152      0.05690      0.01053      
11200   0.09887    0.01106    0.02747    0.00125      0.05739      0.00844      0.00151      0.05690      0.01052      
11300   0.09886    0.01106    0.02747    0.00125      0.05739      0.00844      0.00152      0.05690      0.01053      
11400   0.09884    0.01105    0.02746    0.00125      0.05738      0.00845      0.00151      0.05690      0.01055      
11500   0.09884    0.01105    0.02746    0.00124      0.05739      0.00847      0.00151      0.05690      0.01056      
11600   0.09883    0.01105    0.02746    0.00126      0.05738      0.00844      0.00152      0.05689      0.01052      
11700   0.09882    0.01104    0.02745    0.00126      0.05738      0.00846      0.00152      0.05689      0.01056      
11800   0.09882    0.01104    0.02745    0.00125      0.05738      0.00848      0.00151      0.05689      0.01059      
11900   0.09881    0.01103    0.02745    0.00125      0.05738      0.00846      0.00152      0.05689      0.01057      
12000   0.09880    0.01103    0.02744    0.00126      0.05738      0.00843      0.00152      0.05690      0.01051      
12100   0.09879    0.01102    0.02744    0.00125      0.05739      0.00847      0.00151      0.05691      0.01058      
12200   0.09878    0.01103    0.02743    0.00126      0.05737      0.00846      0.00152      0.05689      0.01056      
12300   0.09878    0.01102    0.02743    0.00126      0.05737      0.00846      0.00152      0.05690      0.01056      
12400   0.09876    0.01102    0.02742    0.00126      0.05737      0.00843      0.00153      0.05689      0.01051      
12500   0.09876    0.01102    0.02742    0.00126      0.05738      0.00843      0.00152      0.05690      0.01051      
12600   0.09875    0.01101    0.02742    0.00125      0.05739      0.00843      0.00151      0.05690      0.01051      
12700   0.09874    0.01101    0.02741    0.00126      0.05737      0.00844      0.00153      0.05689      0.01053      
12800   0.09873    0.01101    0.02741    0.00126      0.05737      0.00843      0.00153      0.05689      0.01051      
12900   0.09873    0.01100    0.02741    0.00126      0.05737      0.00842      0.00153      0.05690      0.01050      
13000   0.09872    0.01100    0.02740    0.00126      0.05737      0.00845      0.00153      0.05689      0.01055      
13100   0.09871    0.01099    0.02740    0.00125      0.05737      0.00845      0.00152      0.05690      0.01054      
13200   0.09870    0.01099    0.02739    0.00126      0.05737      0.00844      0.00152      0.05690      0.01052      
13300   0.09869    0.01098    0.02739    0.00125      0.05737      0.00844      0.00152      0.05689      0.01052      
13400   0.09869    0.01098    0.02738    0.00126      0.05737      0.00846      0.00153      0.05690      0.01055      
13500   0.09868    0.01098    0.02738    0.00126      0.05736      0.00846      0.00152      0.05689      0.01056      
13600   0.09868    0.01098    0.02738    0.00126      0.05736      0.00846      0.00153      0.05689      0.01055      
13700   0.09867    0.01098    0.02738    0.00126      0.05736      0.00845      0.00153      0.05689      0.01053      
13800   0.09866    0.01097    0.02737    0.00126      0.05735      0.00846      0.00153      0.05688      0.01055      

***************************************************************
*                 Welcome to use GPUMD                        *
*    (Graphics Processing Units Molecular Dynamics)           *
*                     Version 3.8                             *
*              This is the nep executable                     *
***************************************************************


---------------------------------------------------------------
GPU information:
---------------------------------------------------------------

number of GPUs = 2
Device id:                   0
    Device name:             NVIDIA GeForce RTX 3090
    Compute capability:      8.6
    Amount of global memory: 23.6911 GB
    Number of SMs:           82
Device id:                   1
    Device name:             NVIDIA GeForce RTX 3090
    Compute capability:      8.6
    Amount of global memory: 23.6911 GB
    Number of SMs:           82
GPU-0 cannot access GPU-1.
GPU-1 cannot access GPU-0.

---------------------------------------------------------------
Started running nep.
---------------------------------------------------------------


---------------------------------------------------------------
Started reading nep.in.
---------------------------------------------------------------

Input or default parameters:
    (default) model_type = potential.
    (default) calculation mode = train.
    (input)   use NEP version 4.
    (input)   number of atom types = 2.
        (default) type 0 (Cu with Z = 29) has force weight of 1.
        (default) type 1 (Se with Z = 34) has force weight of 1.
    (default) will not add the ZBL potential.
    (input)   radial cutoff = 7 A.
    (input)   angular cutoff = 5 A.
    (input)   n_max_radial = 8.
    (input)   n_max_angular = 6.
    (input)   basis_size_radial = 12.
    (input)   basis_size_angular = 12.
    (input)   l_max_3body = 4.
    (input)   l_max_4body = 2.
    (input)   l_max_5body = 0.
    (input)   number of neurons = 50.
    (default) lambda_1 = -1.
    (default) lambda_2 = -1.
    (input)   lambda_e = 1.
    (input)   lambda_f = 1.
    (input)   lambda_v = 0.2.
    (default) lambda_shear = 1.
    (default) force_delta = 0.
    (input)   batch size = 1000.
    (input)   population size = 50.
    (input)   maximum number of generations = 36200.
Some calculated parameters:
    number of radial descriptor components = 9.
    number of angular descriptor components = 35.
    total number of descriptor components = 44.
    NN architecture = 44-50-1.
    number of NN parameters to be optimized = 4601.
    number of descriptor parameters to be optimized = 832.
    total number of parameters to be optimized = 5433.

---------------------------------------------------------------
Finished reading nep.in.
---------------------------------------------------------------


---------------------------------------------------------------
Started reading train.xyz.
---------------------------------------------------------------

Number of configurations = 370.
Number of devices = 2
Number of batches = 1
Hello, I changed the batch_size from 1000 to 370.

Batch 0:
Number of configurations = 370.

---------------------------------------------------------------
Constructing train_set in device  0.
Total number of atoms = 104820.
Number of atoms in the largest configuration = 596.
Number of configurations having virial = 370.
Radial descriptor with a cutoff of 7 A:
    Minimum number of neighbors for one atom = 63.
    Maximum number of neighbors for one atom = 100.
Angular descriptor with a cutoff of 5 A:
    Minimum number of neighbors for one atom = 20.
    Maximum number of neighbors for one atom = 44.
---------------------------------------------------------------


---------------------------------------------------------------
Constructing train_set in device  1.
Total number of atoms = 104820.
Number of atoms in the largest configuration = 596.
Number of configurations having virial = 370.
Radial descriptor with a cutoff of 7 A:
    Minimum number of neighbors for one atom = 63.
    Maximum number of neighbors for one atom = 100.
Angular descriptor with a cutoff of 5 A:
    Minimum number of neighbors for one atom = 20.
    Maximum number of neighbors for one atom = 44.
---------------------------------------------------------------


---------------------------------------------------------------
Started reading test.xyz.
---------------------------------------------------------------

Number of configurations = 170.

---------------------------------------------------------------
Constructing test_set in device  0.
Total number of atoms = 50240.
Number of atoms in the largest configuration = 596.
Number of configurations having virial = 170.
Radial descriptor with a cutoff of 7 A:
    Minimum number of neighbors for one atom = 63.
    Maximum number of neighbors for one atom = 95.
Angular descriptor with a cutoff of 5 A:
    Minimum number of neighbors for one atom = 20.
    Maximum number of neighbors for one atom = 40.
---------------------------------------------------------------


---------------------------------------------------------------
Constructing test_set in device  1.
Total number of atoms = 50240.
Number of atoms in the largest configuration = 596.
Number of configurations having virial = 170.
Radial descriptor with a cutoff of 7 A:
    Minimum number of neighbors for one atom = 63.
    Maximum number of neighbors for one atom = 95.
Angular descriptor with a cutoff of 5 A:
    Minimum number of neighbors for one atom = 20.
    Maximum number of neighbors for one atom = 40.
---------------------------------------------------------------


---------------------------------------------------------------
Time used for initialization = 0.332864 s.
---------------------------------------------------------------


---------------------------------------------------------------
Started training.
---------------------------------------------------------------

Step    Total-Loss L1Reg-Loss L2Reg-Loss RMSE-E-Train RMSE-F-Train RMSE-V-Train RMSE-E-Test  RMSE-F-Test  RMSE-V-Test  
100     0.09866    0.01097    0.02737    0.00126      0.05736      0.00846      0.00153      0.05689      0.01054      
200     0.09865    0.01097    0.02737    0.00126      0.05736      0.00845      0.00153      0.05688      0.01053      
300     0.09864    0.01097    0.02736    0.00127      0.05735      0.00845      0.00154      0.05687      0.01053      
400     0.09863    0.01096    0.02736    0.00126      0.05736      0.00843      0.00153      0.05688      0.01051      
500     0.09862    0.01096    0.02736    0.00126      0.05735      0.00846      0.00153      0.05687      0.01055      
600     0.09861    0.01096    0.02735    0.00125      0.05735      0.00847      0.00152      0.05688      0.01058      
700     0.09861    0.01096    0.02735    0.00126      0.05735      0.00845      0.00153      0.05687      0.01055      
800     0.09860    0.01095    0.02735    0.00126      0.05734      0.00847      0.00153      0.05687      0.01056      
900     0.09859    0.01095    0.02734    0.00125      0.05736      0.00844      0.00152      0.05688      0.01052      
1000    0.09858    0.01095    0.02734    0.00126      0.05734      0.00847      0.00153      0.05687      0.01057      
1100    0.09858    0.01094    0.02734    0.00126      0.05735      0.00846      0.00152      0.05688      0.01056      
1200    0.09857    0.01094    0.02733    0.00126      0.05734      0.00847      0.00153      0.05687      0.01056      
1300    0.09856    0.01093    0.02733    0.00126      0.05735      0.00845      0.00153      0.05687      0.01054      
1400    0.09855    0.01093    0.02733    0.00127      0.05734      0.00844      0.00154      0.05687      0.01053      
1500    0.09855    0.01093    0.02732    0.00126      0.05735      0.00843      0.00152      0.05688      0.01051      
1600    0.09854    0.01092    0.02732    0.00126      0.05734      0.00845      0.00154      0.05687      0.01053      
1700    0.09853    0.01092    0.02732    0.00127      0.05734      0.00845      0.00154      0.05687      0.01054      
1800    0.09853    0.01092    0.02731    0.00126      0.05735      0.00844      0.00153      0.05688      0.01052      
1900    0.09852    0.01091    0.02731    0.00126      0.05735      0.00846      0.00153      0.05687      0.01056      
2000    0.09851    0.01091    0.02731    0.00126      0.05734      0.00846      0.00153      0.05686      0.01055      
2100    0.09851    0.01091    0.02730    0.00126      0.05734      0.00845      0.00153      0.05687      0.01052      
2200    0.09850    0.01091    0.02730    0.00126      0.05735      0.00845      0.00152      0.05687      0.01052      
2300    0.09850    0.01090    0.02730    0.00125      0.05735      0.00845      0.00152      0.05688      0.01052      
2400    0.09849    0.01090    0.02729    0.00125      0.05736      0.00843      0.00152      0.05688      0.01049      
2500    0.09848    0.01089    0.02729    0.00126      0.05735      0.00842      0.00152      0.05688      0.01048      
2600    0.09847    0.01089    0.02729    0.00126      0.05734      0.00845      0.00153      0.05686      0.01052      
2700    0.09847    0.01089    0.02728    0.00126      0.05734      0.00844      0.00153      0.05687      0.01051      
2800    0.09846    0.01089    0.02728    0.00126      0.05734      0.00842      0.00153      0.05686      0.01048      
2900    0.09845    0.01088    0.02728    0.00126      0.05735      0.00843      0.00152      0.05687      0.01051      
3000    0.09845    0.01088    0.02727    0.00126      0.05735      0.00843      0.00153      0.05687      0.01051      
3100    0.09844    0.01088    0.02727    0.00126      0.05735      0.00842      0.00153      0.05687      0.01049      
3200    0.09843    0.01087    0.02727    0.00126      0.05735      0.00842      0.00153      0.05688      0.01050      
3300    0.09842    0.01087    0.02726    0.00126      0.05735      0.00843      0.00153      0.05687      0.01049      
3400    0.09842    0.01086    0.02726    0.00126      0.05735      0.00842      0.00153      0.05687      0.01048      
3500    0.09841    0.01086    0.02726    0.00126      0.05734      0.00846      0.00154      0.05685      0.01054      
3600    0.09840    0.01085    0.02725    0.00127      0.05734      0.00845      0.00154      0.05686      0.01054      
3700    0.09840    0.01086    0.02725    0.00126      0.05734      0.00845      0.00153      0.05686      0.01052      
3800    0.09839    0.01085    0.02725    0.00126      0.05735      0.00843      0.00153      0.05687      0.01050      
3900    0.09838    0.01085    0.02724    0.00126      0.05735      0.00842      0.00153      0.05687      0.01048      
4000    0.09837    0.01084    0.02724    0.00126      0.05735      0.00842      0.00153      0.05687      0.01049      
4100    0.09836    0.01084    0.02724    0.00125      0.05734      0.00845      0.00152      0.05686      0.01052      
4200    0.09836    0.01084    0.02723    0.00125      0.05735      0.00842      0.00152      0.05687      0.01048      
4300    0.09835    0.01084    0.02723    0.00126      0.05733      0.00843      0.00153      0.05685      0.01051      
4400    0.09834    0.01084    0.02723    0.00126      0.05733      0.00842      0.00153      0.05686      0.01049      
4500    0.09833    0.01083    0.02722    0.00126      0.05734      0.00840      0.00153      0.05687      0.01046      
4600    0.09833    0.01083    0.02722    0.00126      0.05733      0.00843      0.00153      0.05686      0.01051      
4700    0.09833    0.01083    0.02722    0.00126      0.05734      0.00841      0.00152      0.05686      0.01047      
4800    0.09832    0.01082    0.02721    0.00126      0.05734      0.00842      0.00153      0.05686      0.01049      
4900    0.09831    0.01082    0.02721    0.00126      0.05733      0.00845      0.00153      0.05686      0.01053      
5000    0.09830    0.01082    0.02721    0.00126      0.05733      0.00843      0.00152      0.05686      0.01051      
5100    0.09830    0.01082    0.02720    0.00125      0.05734      0.00844      0.00152      0.05686      0.01052      
5200    0.09829    0.01081    0.02720    0.00126      0.05733      0.00844      0.00152      0.05686      0.01052      
5300    0.09828    0.01081    0.02720    0.00126      0.05733      0.00844      0.00152      0.05685      0.01052      
5400    0.09827    0.01081    0.02719    0.00126      0.05733      0.00842      0.00152      0.05685      0.01048      
5500    0.09827    0.01081    0.02719    0.00126      0.05733      0.00843      0.00152      0.05686      0.01051      
5600    0.09826    0.01080    0.02719    0.00125      0.05733      0.00842      0.00152      0.05685      0.01050      
5700    0.09825    0.01080    0.02718    0.00126      0.05733      0.00841      0.00152      0.05686      0.01049      
5800    0.09824    0.01080    0.02718    0.00126      0.05732      0.00843      0.00152      0.05685      0.01050      
5900    0.09824    0.01079    0.02717    0.00126      0.05733      0.00842      0.00152      0.05686      0.01050      
6000    0.09823    0.01079    0.02717    0.00126      0.05733      0.00842      0.00152      0.05686      0.01049      
6100    0.09823    0.01079    0.02717    0.00126      0.05733      0.00840      0.00152      0.05685      0.01046      
6200    0.09821    0.01079    0.02717    0.00126      0.05732      0.00841      0.00152      0.05685      0.01047      
6300    0.09820    0.01078    0.02716    0.00126      0.05732      0.00843      0.00153      0.05683      0.01050      
6400    0.09820    0.01078    0.02716    0.00126      0.05732      0.00841      0.00153      0.05684      0.01047      
6500    0.09819    0.01077    0.02715    0.00126      0.05732      0.00841      0.00153      0.05685      0.01047      
6600    0.09818    0.01077    0.02715    0.00126      0.05732      0.00840      0.00153      0.05684      0.01044      
6700    0.09818    0.01077    0.02715    0.00126      0.05732      0.00840      0.00153      0.05684      0.01046      
6800    0.09817    0.01077    0.02714    0.00126      0.05732      0.00838      0.00153      0.05685      0.01042      
6900    0.09816    0.01076    0.02714    0.00125      0.05732      0.00839      0.00152      0.05685      0.01045      
7000    0.09815    0.01076    0.02714    0.00125      0.05732      0.00839      0.00152      0.05685      0.01046      
7100    0.09815    0.01076    0.02713    0.00126      0.05732      0.00840      0.00152      0.05684      0.01046      
7200    0.09814    0.01076    0.02713    0.00126      0.05731      0.00841      0.00152      0.05684      0.01048      
7300    0.09813    0.01075    0.02713    0.00126      0.05731      0.00842      0.00153      0.05684      0.01049      
7400    0.09813    0.01075    0.02712    0.00126      0.05732      0.00841      0.00152      0.05684      0.01049      
7500    0.09812    0.01075    0.02712    0.00126      0.05731      0.00840      0.00153      0.05684      0.01047      
7600    0.09812    0.01074    0.02712    0.00126      0.05732      0.00841      0.00153      0.05683      0.01047      
7700    0.09811    0.01074    0.02711    0.00125      0.05732      0.00840      0.00152      0.05684      0.01047      
7800    0.09810    0.01074    0.02711    0.00126      0.05731      0.00841      0.00153      0.05684      0.01048      
7900    0.09810    0.01074    0.02711    0.00126      0.05731      0.00843      0.00152      0.05684      0.01051      
8000    0.09809    0.01073    0.02710    0.00126      0.05731      0.00840      0.00153      0.05684      0.01048      
8100    0.09808    0.01073    0.02710    0.00126      0.05731      0.00842      0.00153      0.05683      0.01050      
8200    0.09807    0.01073    0.02709    0.00126      0.05731      0.00843      0.00152      0.05682      0.01052      
8300    0.09807    0.01072    0.02709    0.00126      0.05731      0.00842      0.00153      0.05682      0.01051      
8400    0.09806    0.01072    0.02709    0.00125      0.05732      0.00841      0.00152      0.05684      0.01048      
8500    0.09805    0.01071    0.02709    0.00126      0.05731      0.00842      0.00152      0.05683      0.01051      
8600    0.09804    0.01071    0.02708    0.00126      0.05731      0.00840      0.00153      0.05683      0.01047      
8700    0.09803    0.01071    0.02708    0.00126      0.05731      0.00841      0.00152      0.05683      0.01049      
8800    0.09803    0.01071    0.02707    0.00125      0.05731      0.00841      0.00152      0.05683      0.01049      
8900    0.09802    0.01070    0.02707    0.00125      0.05731      0.00841      0.00152      0.05684      0.01049      
9000    0.09801    0.01070    0.02707    0.00125      0.05731      0.00841      0.00152      0.05684      0.01049      
9100    0.09801    0.01070    0.02706    0.00125      0.05731      0.00844      0.00151      0.05684      0.01054      
9200    0.09800    0.01070    0.02706    0.00125      0.05730      0.00844      0.00152      0.05683      0.01052      
9300    0.09799    0.01069    0.02706    0.00126      0.05730      0.00843      0.00152      0.05683      0.01052      
9400    0.09798    0.01069    0.02706    0.00125      0.05731      0.00842      0.00151      0.05683      0.01049      
9500    0.09798    0.01069    0.02705    0.00125      0.05730      0.00841      0.00152      0.05683      0.01049      
9600    0.09797    0.01069    0.02705    0.00126      0.05730      0.00843      0.00152      0.05682      0.01053      
9700    0.09797    0.01068    0.02705    0.00125      0.05731      0.00840      0.00151      0.05683      0.01046      
9800    0.09796    0.01068    0.02704    0.00125      0.05730      0.00841      0.00152      0.05684      0.01049      
9900    0.09795    0.01067    0.02704    0.00125      0.05730      0.00842      0.00152      0.05683      0.01050      
10000   0.09795    0.01067    0.02704    0.00125      0.05731      0.00841      0.00151      0.05684      0.01049      
10100   0.09794    0.01067    0.02703    0.00125      0.05730      0.00840      0.00152      0.05683      0.01046      
10200   0.09793    0.01067    0.02703    0.00125      0.05731      0.00842      0.00152      0.05684      0.01049      
10300   0.09793    0.01067    0.02703    0.00125      0.05730      0.00841      0.00152      0.05683      0.01049      
10400   0.09793    0.01066    0.02702    0.00125      0.05730      0.00843      0.00152      0.05683      0.01053      
10500   0.09792    0.01066    0.02702    0.00126      0.05730      0.00840      0.00152      0.05684      0.01048      
10600   0.09791    0.01066    0.02702    0.00125      0.05730      0.00842      0.00151      0.05683      0.01051      
10700   0.09790    0.01065    0.02701    0.00125      0.05730      0.00842      0.00152      0.05682      0.01051      
10800   0.09790    0.01065    0.02701    0.00126      0.05730      0.00842      0.00152      0.05682      0.01051      
10900   0.09789    0.01065    0.02701    0.00126      0.05730      0.00841      0.00152      0.05682      0.01050      
11000   0.09788    0.01065    0.02700    0.00125      0.05730      0.00840      0.00152      0.05683      0.01049      
11100   0.09788    0.01065    0.02700    0.00125      0.05729      0.00843      0.00152      0.05683      0.01054      
11200   0.09787    0.01064    0.02700    0.00125      0.05729      0.00845      0.00152      0.05682      0.01054      
11300   0.09786    0.01063    0.02699    0.00125      0.05730      0.00842      0.00152      0.05683      0.01051      
11400   0.09786    0.01063    0.02699    0.00126      0.05729      0.00843      0.00152      0.05682      0.01052      
11500   0.09785    0.01063    0.02699    0.00125      0.05730      0.00842      0.00152      0.05683      0.01051      
11600   0.09785    0.01063    0.02698    0.00126      0.05730      0.00840      0.00152      0.05683      0.01048      
11700   0.09784    0.01063    0.02698    0.00125      0.05730      0.00841      0.00152      0.05683      0.01048      
11800   0.09784    0.01062    0.02698    0.00125      0.05730      0.00843      0.00152      0.05683      0.01051      
11900   0.09783    0.01062    0.02697    0.00125      0.05731      0.00840      0.00151      0.05683      0.01048      
12000   0.09782    0.01062    0.02697    0.00125      0.05730      0.00843      0.00151      0.05683      0.01051      
12100   0.09782    0.01061    0.02697    0.00126      0.05730      0.00841      0.00152      0.05683      0.01049      
12200   0.09781    0.01061    0.02696    0.00125      0.05730      0.00842      0.00151      0.05683      0.01050      
12300   0.09780    0.01061    0.02696    0.00125      0.05730      0.00841      0.00152      0.05683      0.01048      
12400   0.09780    0.01061    0.02696    0.00126      0.05729      0.00841      0.00153      0.05683      0.01048      
12500   0.09779    0.01061    0.02696    0.00126      0.05729      0.00841      0.00153      0.05681      0.01049      
12600   0.09778    0.01060    0.02695    0.00126      0.05729      0.00840      0.00152      0.05682      0.01048      
12700   0.09777    0.01060    0.02695    0.00126      0.05729      0.00841      0.00152      0.05682      0.01049      
12800   0.09777    0.01060    0.02695    0.00125      0.05729      0.00841      0.00151      0.05682      0.01049      
12900   0.09776    0.01059    0.02694    0.00125      0.05729      0.00840      0.00152      0.05682      0.01047      
13000   0.09776    0.01059    0.02694    0.00126      0.05729      0.00841      0.00152      0.05682      0.01049      
13100   0.09775    0.01059    0.02694    0.00126      0.05729      0.00840      0.00152      0.05682      0.01048      
13200   0.09775    0.01059    0.02694    0.00126      0.05729      0.00840      0.00152      0.05681      0.01048      
13300   0.09774    0.01058    0.02693    0.00125      0.05729      0.00839      0.00152      0.05682      0.01047      
13400   0.09773    0.01058    0.02693    0.00126      0.05729      0.00839      0.00152      0.05682      0.01046      
13500   0.09772    0.01058    0.02693    0.00126      0.05728      0.00839      0.00153      0.05681      0.01046      
13600   0.09772    0.01057    0.02692    0.00126      0.05728      0.00840      0.00152      0.05681      0.01047      
13700   0.09771    0.01057    0.02692    0.00126      0.05728      0.00839      0.00152      0.05681      0.01047      
13800   0.09770    0.01057    0.02692    0.00125      0.05728      0.00843      0.00152      0.05681      0.01051      
13900   0.09769    0.01056    0.02691    0.00126      0.05728      0.00841      0.00152      0.05681      0.01049      
14000   0.09769    0.01056    0.02691    0.00126      0.05727      0.00841      0.00153      0.05681      0.01049      
14100   0.09768    0.01056    0.02691    0.00126      0.05727      0.00841      0.00153      0.05680      0.01049      
14200   0.09768    0.01056    0.02690    0.00125      0.05728      0.00843      0.00152      0.05681      0.01051      
14300   0.09767    0.01055    0.02690    0.00126      0.05728      0.00840      0.00152      0.05681      0.01048      
14400   0.09766    0.01055    0.02690    0.00126      0.05728      0.00840      0.00153      0.05680      0.01048      
14500   0.09766    0.01055    0.02689    0.00125      0.05728      0.00842      0.00151      0.05681      0.01051      
14600   0.09765    0.01055    0.02689    0.00125      0.05728      0.00842      0.00152      0.05681      0.01051      
14700   0.09764    0.01054    0.02689    0.00125      0.05728      0.00841      0.00152      0.05681      0.01048      
14800   0.09764    0.01054    0.02688    0.00126      0.05727      0.00842      0.00152      0.05681      0.01050      
14900   0.09763    0.01054    0.02688    0.00126      0.05727      0.00840      0.00153      0.05680      0.01047      
15000   0.09762    0.01054    0.02687    0.00125      0.05727      0.00841      0.00152      0.05680      0.01048      
15100   0.09762    0.01053    0.02687    0.00126      0.05727      0.00841      0.00152      0.05680      0.01048      
15200   0.09761    0.01053    0.02687    0.00126      0.05727      0.00840      0.00152      0.05681      0.01047      
15300   0.09760    0.01053    0.02686    0.00125      0.05728      0.00839      0.00152      0.05681      0.01046      
15400   0.09759    0.01053    0.02686    0.00126      0.05727      0.00839      0.00152      0.05680      0.01044      
15500   0.09759    0.01052    0.02686    0.00125      0.05727      0.00840      0.00152      0.05680      0.01047      
15600   0.09758    0.01052    0.02685    0.00126      0.05727      0.00839      0.00152      0.05680      0.01047      
15700   0.09757    0.01051    0.02685    0.00126      0.05726      0.00842      0.00153      0.05680      0.01050      
15800   0.09756    0.01051    0.02684    0.00125      0.05727      0.00842      0.00152      0.05680      0.01050      
15900   0.09756    0.01051    0.02684    0.00126      0.05727      0.00840      0.00153      0.05680      0.01046      
16000   0.09755    0.01051    0.02684    0.00126      0.05727      0.00839      0.00153      0.05680      0.01045      
16100   0.09754    0.01050    0.02683    0.00126      0.05727      0.00841      0.00153      0.05680      0.01048      
16200   0.09754    0.01050    0.02683    0.00125      0.05727      0.00841      0.00152      0.05681      0.01048      
16300   0.09753    0.01050    0.02683    0.00126      0.05727      0.00840      0.00153      0.05680      0.01046      
16400   0.09753    0.01050    0.02682    0.00126      0.05727      0.00839      0.00152      0.05681      0.01046      
16500   0.09752    0.01050    0.02682    0.00126      0.05727      0.00838      0.00152      0.05680      0.01045      
16600   0.09751    0.01049    0.02681    0.00125      0.05727      0.00842      0.00152      0.05680      0.01049      
16700   0.09751    0.01049    0.02681    0.00125      0.05727      0.00841      0.00152      0.05681      0.01048      
16800   0.09750    0.01048    0.02681    0.00125      0.05727      0.00842      0.00152      0.05680      0.01050      
16900   0.09749    0.01048    0.02681    0.00125      0.05728      0.00840      0.00152      0.05681      0.01046      
17000   0.09749    0.01048    0.02680    0.00126      0.05727      0.00838      0.00152      0.05681      0.01044      
17100   0.09748    0.01048    0.02680    0.00125      0.05727      0.00840      0.00152      0.05681      0.01046      
17200   0.09747    0.01048    0.02680    0.00126      0.05726      0.00840      0.00153      0.05680      0.01046      
17300   0.09747    0.01047    0.02679    0.00126      0.05726      0.00841      0.00153      0.05679      0.01049      
17400   0.09746    0.01047    0.02679    0.00125      0.05726      0.00841      0.00152      0.05680      0.01048      
17500   0.09745    0.01047    0.02679    0.00126      0.05726      0.00838      0.00153      0.05680      0.01045      
17600   0.09744    0.01046    0.02678    0.00126      0.05726      0.00841      0.00153      0.05680      0.01048      
17700   0.09744    0.01046    0.02678    0.00126      0.05725      0.00842      0.00153      0.05679      0.01050      
17800   0.09744    0.01046    0.02678    0.00126      0.05726      0.00839      0.00153      0.05680      0.01045      
17900   0.09743    0.01046    0.02677    0.00126      0.05726      0.00840      0.00153      0.05680      0.01047      
18000   0.09743    0.01046    0.02677    0.00126      0.05726      0.00840      0.00154      0.05679      0.01047      
18100   0.09742    0.01045    0.02676    0.00126      0.05726      0.00839      0.00153      0.05679      0.01046      
18200   0.09741    0.01045    0.02676    0.00126      0.05726      0.00840      0.00153      0.05679      0.01047      
18300   0.09740    0.01045    0.02676    0.00126      0.05726      0.00839      0.00153      0.05679      0.01045      
18400   0.09740    0.01044    0.02676    0.00125      0.05726      0.00838      0.00152      0.05680      0.01045      
18500   0.09739    0.01044    0.02675    0.00126      0.05726      0.00838      0.00153      0.05680      0.01045      
18600   0.09738    0.01044    0.02675    0.00125      0.05727      0.00838      0.00152      0.05681      0.01045      
18700   0.09738    0.01044    0.02675    0.00126      0.05726      0.00838      0.00153      0.05680      0.01044      
18800   0.09737    0.01044    0.02674    0.00125      0.05726      0.00839      0.00152      0.05680      0.01046      
18900   0.09737    0.01043    0.02674    0.00126      0.05726      0.00838      0.00153      0.05680      0.01045      
19000   0.09736    0.01043    0.02674    0.00126      0.05726      0.00837      0.00153      0.05680      0.01042      
19100   0.09735    0.01043    0.02673    0.00126      0.05725      0.00839      0.00153      0.05679      0.01045      
19200   0.09735    0.01043    0.02673    0.00126      0.05726      0.00839      0.00152      0.05679      0.01045      
19300   0.09734    0.01042    0.02673    0.00125      0.05726      0.00840      0.00152      0.05679      0.01046      
19400   0.09733    0.01042    0.02672    0.00125      0.05725      0.00840      0.00152      0.05679      0.01046      
19500   0.09733    0.01042    0.02672    0.00126      0.05725      0.00839      0.00152      0.05679      0.01046      
19600   0.09732    0.01042    0.02672    0.00125      0.05726      0.00838      0.00152      0.05680      0.01045      
19700   0.09731    0.01042    0.02671    0.00126      0.05725      0.00840      0.00153      0.05679      0.01046      
19800   0.09731    0.01041    0.02671    0.00126      0.05725      0.00840      0.00153      0.05679      0.01047      
19900   0.09730    0.01041    0.02671    0.00126      0.05725      0.00839      0.00153      0.05679      0.01045      
20000   0.09730    0.01041    0.02670    0.00126      0.05725      0.00840      0.00153      0.05679      0.01046      
20100   0.09729    0.01040    0.02670    0.00126      0.05725      0.00840      0.00152      0.05678      0.01047      
20200   0.09728    0.01040    0.02670    0.00125      0.05725      0.00841      0.00152      0.05678      0.01048      
20300   0.09728    0.01040    0.02669    0.00126      0.05725      0.00841      0.00152      0.05678      0.01048      
20400   0.09728    0.01040    0.02669    0.00126      0.05725      0.00839      0.00153      0.05679      0.01045      
20500   0.09727    0.01040    0.02669    0.00126      0.05725      0.00841      0.00152      0.05678      0.01048      
20600   0.09726    0.01039    0.02668    0.00125      0.05725      0.00838      0.00152      0.05679      0.01044      
20700   0.09725    0.01039    0.02668    0.00125      0.05725      0.00839      0.00152      0.05679      0.01045      
20800   0.09725    0.01039    0.02668    0.00126      0.05725      0.00839      0.00152      0.05678      0.01045      
20900   0.09724    0.01039    0.02667    0.00126      0.05724      0.00839      0.00153      0.05678      0.01045      
21000   0.09723    0.01038    0.02667    0.00126      0.05724      0.00839      0.00153      0.05678      0.01046      
21100   0.09723    0.01038    0.02667    0.00126      0.05724      0.00838      0.00153      0.05678      0.01044      
21200   0.09722    0.01038    0.02666    0.00126      0.05724      0.00838      0.00153      0.05678      0.01044      
21300   0.09721    0.01038    0.02666    0.00126      0.05724      0.00839      0.00153      0.05678      0.01045      
21400   0.09721    0.01037    0.02666    0.00125      0.05724      0.00840      0.00152      0.05678      0.01047      
21500   0.09720    0.01037    0.02666    0.00125      0.05724      0.00841      0.00152      0.05678      0.01049      
21600   0.09719    0.01036    0.02665    0.00126      0.05724      0.00838      0.00152      0.05678      0.01045      
21700   0.09719    0.01036    0.02665    0.00126      0.05724      0.00839      0.00153      0.05678      0.01047      
21800   0.09718    0.01036    0.02664    0.00126      0.05724      0.00839      0.00152      0.05678      0.01046      
21900   0.09718    0.01036    0.02664    0.00125      0.05725      0.00839      0.00152      0.05679      0.01046      
22000   0.09717    0.01036    0.02664    0.00125      0.05725      0.00839      0.00152      0.05678      0.01046      
22100   0.09717    0.01035    0.02663    0.00126      0.05724      0.00840      0.00153      0.05678      0.01047      
22200   0.09716    0.01035    0.02663    0.00126      0.05725      0.00839      0.00152      0.05679      0.01046      
22300   0.09716    0.01035    0.02663    0.00125      0.05725      0.00839      0.00152      0.05679      0.01046      
22400   0.09715    0.01035    0.02662    0.00125      0.05725      0.00839      0.00152      0.05679      0.01046      
22500   0.09714    0.01034    0.02662    0.00125      0.05724      0.00839      0.00152      0.05678      0.01046      
22600   0.09713    0.01034    0.02662    0.00126      0.05724      0.00839      0.00152      0.05678      0.01045      
22700   0.09713    0.01034    0.02661    0.00126      0.05724      0.00838      0.00152      0.05678      0.01045      
22800   0.09712    0.01034    0.02661    0.00126      0.05724      0.00838      0.00153      0.05678      0.01045      
22900   0.09711    0.01034    0.02661    0.00125      0.05724      0.00839      0.00152      0.05678      0.01045      
23000   0.09711    0.01033    0.02660    0.00125      0.05724      0.00839      0.00153      0.05678      0.01047      
23100   0.09710    0.01033    0.02660    0.00126      0.05724      0.00839      0.00152      0.05678      0.01047      
23200   0.09710    0.01033    0.02660    0.00126      0.05724      0.00838      0.00153      0.05678      0.01044      
23300   0.09709    0.01033    0.02659    0.00126      0.05724      0.00837      0.00152      0.05678      0.01043      
23400   0.09708    0.01033    0.02659    0.00126      0.05724      0.00838      0.00152      0.05678      0.01045      
23500   0.09708    0.01032    0.02659    0.00126      0.05723      0.00839      0.00153      0.05677      0.01047      
23600   0.09707    0.01032    0.02659    0.00126      0.05723      0.00840      0.00153      0.05677      0.01047      
23700   0.09707    0.01032    0.02658    0.00126      0.05723      0.00839      0.00153      0.05678      0.01046      
23800   0.09706    0.01032    0.02658    0.00126      0.05723      0.00840      0.00153      0.05677      0.01048      
23900   0.09706    0.01031    0.02658    0.00126      0.05723      0.00840      0.00153      0.05678      0.01048      
24000   0.09705    0.01031    0.02657    0.00126      0.05723      0.00839      0.00153      0.05677      0.01046      
24100   0.09704    0.01031    0.02657    0.00126      0.05723      0.00839      0.00153      0.05677      0.01046      
24200   0.09704    0.01031    0.02657    0.00125      0.05723      0.00839      0.00152      0.05677      0.01046      
24300   0.09703    0.01031    0.02656    0.00125      0.05723      0.00840      0.00152      0.05677      0.01047      
24400   0.09703    0.01030    0.02656    0.00126      0.05723      0.00839      0.00152      0.05677      0.01047      
24500   0.09702    0.01030    0.02656    0.00126      0.05723      0.00840      0.00153      0.05677      0.01048      
24600   0.09702    0.01030    0.02655    0.00126      0.05723      0.00840      0.00153      0.05677      0.01047      
24700   0.09701    0.01029    0.02655    0.00125      0.05723      0.00840      0.00153      0.05677      0.01046      
24800   0.09700    0.01029    0.02655    0.00125      0.05723      0.00840      0.00152      0.05677      0.01046      
24900   0.09700    0.01029    0.02655    0.00126      0.05723      0.00838      0.00153      0.05677      0.01045      
25000   0.09699    0.01029    0.02654    0.00125      0.05723      0.00839      0.00152      0.05677      0.01046      
25100   0.09699    0.01029    0.02654    0.00125      0.05723      0.00839      0.00152      0.05677      0.01046      
25200   0.09698    0.01028    0.02653    0.00126      0.05723      0.00840      0.00153      0.05677      0.01047      
25300   0.09698    0.01028    0.02653    0.00125      0.05723      0.00839      0.00152      0.05677      0.01045      
25400   0.09697    0.01028    0.02653    0.00126      0.05723      0.00839      0.00153      0.05677      0.01046      
25500   0.09697    0.01027    0.02652    0.00126      0.05723      0.00839      0.00153      0.05677      0.01045      
25600   0.09696    0.01028    0.02652    0.00126      0.05722      0.00840      0.00153      0.05676      0.01047      
25700   0.09695    0.01027    0.02652    0.00126      0.05722      0.00839      0.00153      0.05676      0.01046      
25800   0.09695    0.01027    0.02652    0.00126      0.05723      0.00839      0.00153      0.05677      0.01045      
25900   0.09695    0.01027    0.02651    0.00126      0.05722      0.00839      0.00154      0.05677      0.01045      
26000   0.09694    0.01027    0.02651    0.00126      0.05722      0.00840      0.00153      0.05676      0.01047      
26100   0.09693    0.01026    0.02651    0.00126      0.05723      0.00840      0.00153      0.05677      0.01046      
26200   0.09693    0.01026    0.02651    0.00125      0.05723      0.00838      0.00152      0.05677      0.01044      
26300   0.09692    0.01026    0.02650    0.00126      0.05723      0.00839      0.00152      0.05677      0.01046      
26400   0.09692    0.01026    0.02650    0.00125      0.05723      0.00837      0.00152      0.05677      0.01043      
26500   0.09691    0.01026    0.02650    0.00125      0.05723      0.00839      0.00152      0.05677      0.01045      
26600   0.09691    0.01025    0.02649    0.00126      0.05723      0.00839      0.00152      0.05676      0.01047      
26700   0.09690    0.01025    0.02649    0.00125      0.05723      0.00839      0.00152      0.05677      0.01045      
26800   0.09689    0.01025    0.02649    0.00126      0.05722      0.00840      0.00152      0.05676      0.01048      
26900   0.09689    0.01025    0.02648    0.00125      0.05723      0.00840      0.00152      0.05677      0.01046      
27000   0.09688    0.01024    0.02648    0.00125      0.05722      0.00839      0.00152      0.05677      0.01046      
27100   0.09687    0.01024    0.02648    0.00125      0.05722      0.00839      0.00152      0.05676      0.01046      
27200   0.09687    0.01024    0.02647    0.00126      0.05722      0.00839      0.00153      0.05676      0.01046      
27300   0.09686    0.01024    0.02647    0.00125      0.05722      0.00840      0.00152      0.05676      0.01048      
27400   0.09686    0.01023    0.02647    0.00126      0.05722      0.00839      0.00153      0.05677      0.01045      
27500   0.09685    0.01023    0.02647    0.00126      0.05722      0.00839      0.00153      0.05677      0.01046      
27600   0.09685    0.01023    0.02646    0.00126      0.05722      0.00840      0.00153      0.05677      0.01047      
27700   0.09684    0.01023    0.02646    0.00126      0.05722      0.00840      0.00153      0.05676      0.01046      
27800   0.09684    0.01023    0.02646    0.00126      0.05722      0.00839      0.00153      0.05676      0.01045      
27900   0.09683    0.01023    0.02645    0.00126      0.05722      0.00840      0.00153      0.05676      0.01048      
28000   0.09683    0.01022    0.02645    0.00126      0.05722      0.00840      0.00153      0.05676      0.01047      
28100   0.09682    0.01022    0.02645    0.00126      0.05722      0.00839      0.00153      0.05676      0.01045      
28200   0.09682    0.01022    0.02644    0.00126      0.05721      0.00840      0.00153      0.05676      0.01047      
28300   0.09681    0.01021    0.02644    0.00126      0.05722      0.00839      0.00153      0.05676      0.01045      
28400   0.09680    0.01021    0.02644    0.00125      0.05722      0.00839      0.00153      0.05676      0.01046      
28500   0.09680    0.01021    0.02644    0.00126      0.05722      0.00839      0.00153      0.05676      0.01045      
28600   0.09679    0.01021    0.02643    0.00125      0.05722      0.00840      0.00152      0.05676      0.01047      
28700   0.09679    0.01021    0.02643    0.00126      0.05722      0.00838      0.00153      0.05676      0.01046      
28800   0.09678    0.01021    0.02643    0.00126      0.05722      0.00838      0.00153      0.05676      0.01045      
28900   0.09678    0.01021    0.02642    0.00125      0.05721      0.00840      0.00152      0.05676      0.01047      
29000   0.09677    0.01020    0.02642    0.00125      0.05721      0.00839      0.00153      0.05676      0.01046      
29100   0.09677    0.01020    0.02642    0.00125      0.05722      0.00839      0.00152      0.05676      0.01046      
29200   0.09676    0.01020    0.02641    0.00125      0.05721      0.00840      0.00152      0.05676      0.01047      
29300   0.09676    0.01020    0.02641    0.00125      0.05722      0.00839      0.00152      0.05676      0.01046      
29400   0.09675    0.01020    0.02641    0.00125      0.05721      0.00840      0.00152      0.05676      0.01048      
29500   0.09674    0.01019    0.02640    0.00125      0.05721      0.00841      0.00152      0.05676      0.01048      
29600   0.09674    0.01019    0.02640    0.00126      0.05721      0.00840      0.00152      0.05676      0.01047      
29700   0.09673    0.01019    0.02640    0.00125      0.05721      0.00841      0.00152      0.05676      0.01049      
29800   0.09673    0.01019    0.02640    0.00125      0.05722      0.00839      0.00152      0.05676      0.01046      
29900   0.09672    0.01019    0.02639    0.00125      0.05721      0.00840      0.00152      0.05676      0.01047      
30000   0.09671    0.01018    0.02639    0.00126      0.05721      0.00840      0.00153      0.05675      0.01047      
30100   0.09671    0.01018    0.02639    0.00125      0.05721      0.00841      0.00152      0.05676      0.01048      
30200   0.09670    0.01018    0.02638    0.00126      0.05721      0.00839      0.00153      0.05676      0.01047      
30300   0.09670    0.01018    0.02638    0.00125      0.05721      0.00839      0.00153      0.05676      0.01046      
30400   0.09669    0.01017    0.02638    0.00125      0.05721      0.00839      0.00152      0.05676      0.01046      
30500   0.09669    0.01017    0.02637    0.00126      0.05721      0.00840      0.00153      0.05675      0.01047      
30600   0.09668    0.01017    0.02637    0.00125      0.05721      0.00839      0.00153      0.05676      0.01046      
30700   0.09668    0.01017    0.02637    0.00126      0.05721      0.00839      0.00153      0.05675      0.01045      
30800   0.09667    0.01017    0.02636    0.00125      0.05721      0.00838      0.00152      0.05676      0.01044      
30900   0.09666    0.01016    0.02636    0.00126      0.05720      0.00839      0.00153      0.05675      0.01046      
31000   0.09666    0.01016    0.02636    0.00126      0.05720      0.00839      0.00153      0.05675      0.01045      
31100   0.09665    0.01016    0.02635    0.00126      0.05720      0.00839      0.00153      0.05675      0.01045      
31200   0.09665    0.01016    0.02635    0.00125      0.05721      0.00839      0.00152      0.05676      0.01046      
31300   0.09664    0.01016    0.02635    0.00126      0.05720      0.00838      0.00153      0.05675      0.01043      
31400   0.09664    0.01015    0.02635    0.00126      0.05720      0.00839      0.00153      0.05675      0.01045      
31500   0.09663    0.01015    0.02634    0.00126      0.05720      0.00839      0.00153      0.05675      0.01045      
31600   0.09663    0.01015    0.02634    0.00125      0.05721      0.00839      0.00153      0.05675      0.01045      
31700   0.09662    0.01015    0.02634    0.00126      0.05720      0.00840      0.00153      0.05675      0.01046      
31800   0.09662    0.01015    0.02633    0.00126      0.05720      0.00839      0.00153      0.05675      0.01045      
31900   0.09661    0.01014    0.02633    0.00126      0.05720      0.00839      0.00153      0.05675      0.01046      
32000   0.09660    0.01014    0.02633    0.00126      0.05720      0.00838      0.00153      0.05675      0.01045      
32100   0.09660    0.01014    0.02632    0.00125      0.05720      0.00839      0.00153      0.05675      0.01045      
32200   0.09659    0.01014    0.02632    0.00126      0.05720      0.00840      0.00153      0.05675      0.01047      
32300   0.09659    0.01014    0.02632    0.00126      0.05719      0.00840      0.00153      0.05674      0.01048      
32400   0.09658    0.01014    0.02631    0.00126      0.05719      0.00840      0.00153      0.05675      0.01048      
32500   0.09658    0.01013    0.02631    0.00125      0.05720      0.00841      0.00153      0.05675      0.01048      
32600   0.09657    0.01013    0.02631    0.00126      0.05719      0.00841      0.00153      0.05675      0.01048      
32700   0.09657    0.01013    0.02630    0.00125      0.05720      0.00841      0.00153      0.05675      0.01048      
32800   0.09656    0.01013    0.02630    0.00126      0.05720      0.00840      0.00153      0.05675      0.01047      
32900   0.09656    0.01012    0.02630    0.00126      0.05720      0.00839      0.00153      0.05675      0.01045      
33000   0.09655    0.01012    0.02630    0.00126      0.05720      0.00840      0.00153      0.05675      0.01046      
33100   0.09655    0.01012    0.02629    0.00126      0.05719      0.00841      0.00153      0.05674      0.01048      
33200   0.09654    0.01012    0.02629    0.00126      0.05719      0.00840      0.00153      0.05674      0.01047      
33300   0.09653    0.01011    0.02629    0.00126      0.05720      0.00840      0.00153      0.05674      0.01047      
33400   0.09653    0.01011    0.02628    0.00126      0.05720      0.00839      0.00153      0.05674      0.01046      
33500   0.09652    0.01011    0.02628    0.00126      0.05720      0.00839      0.00153      0.05675      0.01045      
33600   0.09652    0.01011    0.02628    0.00125      0.05720      0.00839      0.00153      0.05675      0.01046      
33700   0.09651    0.01011    0.02627    0.00126      0.05719      0.00840      0.00153      0.05675      0.01047      
33800   0.09651    0.01010    0.02627    0.00126      0.05719      0.00841      0.00153      0.05674      0.01048      
33900   0.09650    0.01010    0.02627    0.00125      0.05720      0.00840      0.00152      0.05675      0.01047      
34000   0.09649    0.01010    0.02626    0.00126      0.05720      0.00839      0.00153      0.05674      0.01047      
34100   0.09649    0.01010    0.02626    0.00125      0.05719      0.00840      0.00152      0.05674      0.01046      
34200   0.09648    0.01010    0.02626    0.00125      0.05720      0.00840      0.00152      0.05674      0.01047      
34300   0.09648    0.01010    0.02626    0.00126      0.05719      0.00839      0.00153      0.05674      0.01046      
34400   0.09647    0.01010    0.02625    0.00125      0.05719      0.00840      0.00152      0.05674      0.01047      
34500   0.09647    0.01009    0.02625    0.00126      0.05719      0.00839      0.00153      0.05675      0.01045      
34600   0.09646    0.01009    0.02625    0.00126      0.05719      0.00838      0.00153      0.05674      0.01044      
34700   0.09646    0.01009    0.02624    0.00126      0.05720      0.00838      0.00153      0.05675      0.01045      
34800   0.09646    0.01009    0.02624    0.00125      0.05719      0.00839      0.00153      0.05674      0.01046      
34900   0.09645    0.01009    0.02624    0.00126      0.05719      0.00838      0.00153      0.05674      0.01045      
35000   0.09644    0.01008    0.02623    0.00126      0.05719      0.00839      0.00153      0.05675      0.01045      
35100   0.09644    0.01008    0.02623    0.00125      0.05720      0.00839      0.00152      0.05675      0.01045      
35200   0.09643    0.01008    0.02623    0.00125      0.05720      0.00839      0.00152      0.05674      0.01046      
35300   0.09643    0.01008    0.02622    0.00125      0.05719      0.00839      0.00152      0.05674      0.01046      
35400   0.09642    0.01008    0.02622    0.00125      0.05719      0.00840      0.00152      0.05674      0.01047      
35500   0.09642    0.01008    0.02622    0.00125      0.05719      0.00839      0.00152      0.05674      0.01046      
35600   0.09641    0.01007    0.02622    0.00125      0.05719      0.00838      0.00152      0.05674      0.01044      
35700   0.09641    0.01007    0.02621    0.00126      0.05719      0.00839      0.00153      0.05674      0.01046      
35800   0.09640    0.01007    0.02621    0.00125      0.05719      0.00838      0.00152      0.05674      0.01045      
35900   0.09640    0.01007    0.02621    0.00125      0.05719      0.00839      0.00152      0.05674      0.01045      
36000   0.09639    0.01007    0.02620    0.00125      0.05719      0.00838      0.00152      0.05674      0.01045      
36100   0.09639    0.01006    0.02620    0.00125      0.05720      0.00837      0.00152      0.05674      0.01043      
36200   0.09638    0.01006    0.02620    0.00126      0.05719      0.00838      0.00153      0.05674      0.01044      

---------------------------------------------------------------
Time used for training = 14571.451172 s.
---------------------------------------------------------------


---------------------------------------------------------------
Finished running nep.
---------------------------------------------------------------

