 ----------------------------------------------------
    OOO  PPPP  EEEEE N   N M   M PPPP
   O   O P   P E     NN  N MM MM P   P
   O   O PPPP  EEEEE N N N M M M PPPP   -- VERSION
   O   O P     E     N  NN M   M P
    OOO  P     EEEEE N   N M   M P
 ----------------------------------------------------
 running    1 mpi-ranks, with    2 threads/rank
 distrk:  each k-point on    1 cores,    1 groups
 distr:  one band on    1 cores,    1 groups
 OpenACC runtime initialized ...    1 GPUs detected
 vasp.6.3.0 20Jan22 (build May 16 2023 14:17:28) gamma-only                      
 POSCAR found type information on POSCAR CuSe
 POSCAR found :  2 types and     324 ions
 scaLAPACK will be used selectively (only on CPU)
 LDA part: xc-table for Pade appr. of Perdew
 POSCAR, INCAR and KPOINTS ok, starting setup
 FFT: planning ... GRIDC
 FFT: planning ... GRID_SOFT
 FFT: planning ... GRID
 WAVECAR not read
 prediction of wavefunctions initialized - no I/O
 entering main loop
       N       E                     dE             d eps       ncg     rms          rms(c)
DAV:   1     0.486472641076E+05    0.48647E+05   -0.12452E+06  3788   0.264E+03
DAV:   2     0.125325136912E+05   -0.36115E+05   -0.34884E+05  3628   0.737E+02
DAV:   3     0.143982052900E+04   -0.11093E+05   -0.10385E+05  3900   0.329E+02
DAV:   4    -0.952326366560E+03   -0.23921E+04   -0.21766E+04  5002   0.171E+02
DAV:   5    -0.127465005305E+04   -0.32232E+03   -0.30180E+03  5640   0.591E+01    0.986E+01
RMM:   6    -0.122777134620E+04    0.46879E+02   -0.15990E+03  3646   0.718E+01    0.581E+01
RMM:   7    -0.117291830588E+04    0.54853E+02   -0.41592E+02  3733   0.403E+01    0.152E+01
RMM:   8    -0.117807697832E+04   -0.51587E+01   -0.66551E+01  4820   0.697E+00    0.343E+00
RMM:   9    -0.117851922172E+04   -0.44224E+00   -0.71436E+00  4490   0.222E+00    0.209E+00
RMM:  10    -0.117859186088E+04   -0.72639E-01   -0.13914E+00  4689   0.114E+00    0.116E+00
RMM:  11    -0.117860835810E+04   -0.16497E-01   -0.37135E-01  4512   0.570E-01    0.756E-01
RMM:  12    -0.117861580855E+04   -0.74504E-02   -0.92913E-02  4519   0.256E-01    0.266E-01
RMM:  13    -0.117861766803E+04   -0.18595E-02   -0.21923E-02  4916   0.101E-01    0.255E-01
RMM:  14    -0.117861753957E+04    0.12846E-03   -0.31533E-03  4279   0.593E-02    0.982E-02
RMM:  15    -0.117861770826E+04   -0.16869E-03   -0.18537E-03  4713   0.283E-02    0.190E-02
RMM:  16    -0.117861772538E+04   -0.17120E-04   -0.23865E-04  4248   0.867E-03    0.718E-03
RMM:  17    -0.117861771654E+04    0.88414E-05   -0.34014E-05  2338   0.514E-03
      1 T=   900. E= -.11410416E+04 F= -.11786177E+04 E0= -.11784807E+04  EK= 0.37576E+02 SP= 0.00E+00 SK= 0.00E+00
 bond charge predicted
       N       E                     dE             d eps       ncg     rms          rms(c)
DAV:   1    -0.117651171429E+04    0.21060E+01   -0.70656E+02  4184   0.210E+01    0.460E+00
RMM:   2    -0.117781315255E+04   -0.13014E+01   -0.14278E+01  3999   0.550E+00    0.251E+00
RMM:   3    -0.117815135770E+04   -0.33821E+00   -0.51310E+00  4310   0.323E+00    0.163E+00
RMM:   4    -0.117835696875E+04   -0.20561E+00   -0.25285E+00  4953   0.159E+00    0.142E+00
RMM:   5    -0.117835842459E+04   -0.14558E-02   -0.96666E-02  4170   0.238E-01    0.139E+00
RMM:   6    -0.117836232769E+04   -0.39031E-02   -0.19511E-02  5108   0.110E-01    0.149E+00
RMM:   7    -0.117833442745E+04    0.27900E-01   -0.87026E-02  5064   0.306E-01    0.500E-01
RMM:   8    -0.117833302816E+04    0.13993E-02   -0.10672E-02  4169   0.130E-01    0.386E-01
RMM:   9    -0.117833258185E+04    0.44631E-03   -0.63201E-03  4420   0.889E-02    0.358E-01
RMM:  10    -0.117833162671E+04    0.95514E-03   -0.18663E-03  4399   0.483E-02    0.263E-01
RMM:  11    -0.117833078642E+04    0.84029E-03   -0.18465E-03  4047   0.624E-02    0.119E-01
RMM:  12    -0.117833072224E+04    0.64185E-04   -0.94205E-04  4271   0.225E-02    0.678E-02
RMM:  13    -0.117833070437E+04    0.17869E-04   -0.11750E-04  3252   0.174E-02    0.527E-02
RMM:  14    -0.117833069462E+04    0.97493E-05   -0.83357E-05  3015   0.876E-03
      2 T=   893. E= -.11410637E+04 F= -.11783307E+04 E0= -.11781957E+04  EK= 0.37267E+02 SP= -.12E-06 SK= 0.32E-13
 bond charge predicted
 prediction of wavefunctions
       N       E                     dE             d eps       ncg     rms          rms(c)
DAV:   1    -0.117724803351E+04    0.10827E+01   -0.91603E+00  4840   0.703E+00    0.156E+00
RMM:   2    -0.117740345781E+04   -0.15542E+00   -0.16697E+00  3743   0.239E+00    0.110E+00
RMM:   3    -0.117744372312E+04   -0.40265E-01   -0.65614E-01  4118   0.884E-01    0.516E-01
RMM:   4    -0.117746112738E+04   -0.17404E-01   -0.21406E-01  5105   0.401E-01    0.541E-01
RMM:   5    -0.117746130145E+04   -0.17407E-03   -0.10548E-02  5149   0.703E-02    0.447E-01
RMM:   6    -0.117746119165E+04    0.10980E-03   -0.11381E-03  5111   0.224E-02    0.350E-01
RMM:   7    -0.117746091925E+04    0.27240E-03   -0.99261E-04  4090   0.447E-02    0.580E-02
RMM:   8    -0.117746095657E+04   -0.37320E-04   -0.42557E-04  4026   0.231E-02    0.921E-02
RMM:   9    -0.117746095099E+04    0.55816E-05   -0.21279E-04  4247   0.126E-02    0.767E-02
RMM:  10    -0.117746092695E+04    0.24038E-04   -0.78688E-05  3329   0.966E-03    0.127E-02
RMM:  11    -0.117746092882E+04   -0.18709E-05   -0.13212E-05  2110   0.469E-03
      3 T=   872. E= -.11410657E+04 F= -.11774609E+04 E0= -.11773314E+04  EK= 0.36403E+02 SP= -.76E-02 SK= 0.12E-03
 bond charge predicted
 prediction of wavefunctions
       N       E                     dE             d eps       ncg     rms          rms(c)
DAV:   1    -0.117573219257E+04    0.17287E+01   -0.15535E+01  5680   0.703E+00    0.241E+00
RMM:   2    -0.117600485481E+04   -0.27266E+00   -0.27583E+00  3886   0.246E+00    0.937E-01
RMM:   3    -0.117608097025E+04   -0.76115E-01   -0.10041E+00  4431   0.995E-01    0.115E+00
RMM:   4    -0.117609400685E+04   -0.13037E-01   -0.25629E-01  4838   0.459E-01    0.906E-01
RMM:   5    -0.117609554869E+04   -0.15418E-02   -0.25754E-02  5106   0.907E-02    0.766E-01
RMM:   6    -0.117609533018E+04    0.21851E-03   -0.24882E-03  5148   0.291E-02    0.551E-01
RMM:   7    -0.117609498457E+04    0.34560E-03   -0.16576E-03  4154   0.484E-02    0.121E-01
RMM:   8    -0.117609499575E+04   -0.11173E-04   -0.49203E-04  4410   0.228E-02    0.209E-01
RMM:   9    -0.117609488060E+04    0.11515E-03   -0.25580E-04  4841   0.129E-02    0.955E-02
RMM:  10    -0.117609486433E+04    0.16273E-04   -0.61126E-05  2914   0.860E-03    0.299E-02
RMM:  11    -0.117609486404E+04    0.28464E-06   -0.13199E-05  2107   0.466E-03
      4 T=   840. E= -.11410678E+04 F= -.11760949E+04 E0= -.11759735E+04  EK= 0.35069E+02 SP= -.44E-01 SK= 0.18E-02
 bond charge predicted
 prediction of wavefunctions
       N       E                     dE             d eps       ncg     rms          rms(c)
DAV:   1    -0.117409687757E+04    0.19980E+01   -0.36332E+00  5792   0.510E+00    0.153E+00
RMM:   2    -0.117422716140E+04   -0.13028E+00   -0.13385E+00  3892   0.185E+00    0.878E-01
RMM:   3    -0.117425559051E+04   -0.28429E-01   -0.48802E-01  4313   0.798E-01    0.579E-01
RMM:   4    -0.117426834786E+04   -0.12757E-01   -0.16738E-01  4999   0.331E-01    0.484E-01
RMM:   5    -0.117426863983E+04   -0.29197E-03   -0.10213E-02  5148   0.634E-02    0.409E-01
RMM:   6    -0.117426860386E+04    0.35970E-04   -0.90789E-04  4875   0.171E-02    0.342E-01
RMM:   7    -0.117426833861E+04    0.26526E-03   -0.64941E-04  4008   0.384E-02    0.620E-02
RMM:   8    -0.117426833202E+04    0.65909E-05   -0.37924E-04  4074   0.207E-02    0.808E-02
RMM:   9    -0.117426831721E+04    0.14803E-04   -0.13219E-04  3259   0.799E-03    0.564E-02
RMM:  10    -0.117426830833E+04    0.88807E-05   -0.57526E-05  2927   0.941E-03
      5 T=   798. E= -.11410687E+04 F= -.11742683E+04 E0= -.11741562E+04  EK= 0.33331E+02 SP= -.14E+00 SK= 0.10E-01
 bond charge predicted
 prediction of wavefunctions
       N       E                     dE             d eps       ncg     rms          rms(c)
DAV:   1    -0.117190846055E+04    0.23599E+01   -0.22999E+00  5976   0.455E+00    0.125E+00
RMM:   2    -0.117202247141E+04   -0.11401E+00   -0.11607E+00  3986   0.160E+00    0.763E-01
RMM:   3    -0.117204566972E+04   -0.23198E-01   -0.38572E-01  4577   0.670E-01    0.490E-01
RMM:   4    -0.117205316127E+04   -0.74916E-02   -0.97879E-02  4924   0.238E-01    0.427E-01
RMM:   5    -0.117205345606E+04   -0.29479E-03   -0.71106E-03  5146   0.518E-02    0.370E-01
RMM:   6    -0.117205338850E+04    0.67560E-04   -0.68361E-04  4800   0.161E-02    0.299E-01
RMM:   7    -0.117205315039E+04    0.23811E-03   -0.58245E-04  3874   0.389E-02    0.504E-02
RMM:   8    -0.117205315503E+04   -0.46403E-05   -0.32505E-04  4167   0.163E-02    0.504E-02
RMM:   9    -0.117205314474E+04    0.10291E-04   -0.74175E-05  2904   0.744E-03    0.293E-02
RMM:  10    -0.117205314088E+04    0.38604E-05   -0.39662E-05  2518   0.793E-03
      6 T=   750. E= -.11410651E+04 F= -.11720531E+04 E0= -.11719504E+04  EK= 0.31294E+02 SP= -.34E+00 SK= 0.38E-01
 bond charge predicted
 prediction of wavefunctions
       N       E                     dE             d eps       ncg     rms          rms(c)
DAV:   1    -0.116945377937E+04    0.25994E+01   -0.14159E+00  5984   0.419E+00    0.105E+00
RMM:   2    -0.116954320328E+04   -0.89424E-01   -0.90515E-01  4048   0.137E+00    0.673E-01
RMM:   3    -0.116956193541E+04   -0.18732E-01   -0.30456E-01  4743   0.578E-01    0.351E-01
RMM:   4    -0.116956649371E+04   -0.45583E-02   -0.61200E-02  5068   0.181E-01    0.303E-01
RMM:   5    -0.116956662774E+04   -0.13403E-03   -0.39793E-03  5137   0.389E-02    0.260E-01
RMM:   6    -0.116956658345E+04    0.44295E-04   -0.44815E-04  4715   0.136E-02    0.204E-01
RMM:   7    -0.116956643848E+04    0.14497E-03   -0.39793E-04  3777   0.336E-02    0.289E-02
RMM:   8    -0.116956644725E+04   -0.87745E-05   -0.20382E-04  4279   0.109E-02    0.292E-02
RMM:   9    -0.116956644135E+04    0.59016E-05   -0.24264E-05  2410   0.556E-03
      7 T=   697. E= -.11410558E+04 F= -.11695664E+04 E0= -.11694719E+04  EK= 0.29104E+02 SP= -.70E+00 SK= 0.11E+00
 bond charge predicted
 prediction of wavefunctions
       N       E                     dE             d eps       ncg     rms          rms(c)
DAV:   1    -0.116688385904E+04    0.26826E+01   -0.11197E+00  5976   0.391E+00    0.905E-01
RMM:   2    -0.116695699092E+04   -0.73132E-01   -0.73883E-01  4043   0.124E+00    0.613E-01
RMM:   3    -0.116697369027E+04   -0.16699E-01   -0.26257E-01  4859   0.524E-01    0.315E-01
RMM:   4    -0.116697646765E+04   -0.27774E-02   -0.39910E-02  5097   0.145E-01    0.272E-01
RMM:   5    -0.116697654788E+04   -0.80230E-04   -0.26975E-03  5125   0.327E-02    0.233E-01
RMM:   6    -0.116697648965E+04    0.58229E-04   -0.33885E-04  4587   0.136E-02    0.166E-01
RMM:   7    -0.116697638409E+04    0.10556E-03   -0.34015E-04  3795   0.308E-02    0.258E-02
RMM:   8    -0.116697639149E+04   -0.73992E-05   -0.14745E-04  3638   0.897E-03    0.277E-02
RMM:   9    -0.116697638544E+04    0.60482E-05   -0.25655E-05  2356   0.747E-03
      8 T=   645. E= -.11410470E+04 F= -.11669764E+04 E0= -.11668884E+04  EK= 0.26944E+02 SP= -.13E+01 SK= 0.25E+00
 bond charge predicted
 prediction of wavefunctions
       N       E                     dE             d eps       ncg     rms          rms(c)
DAV:   1    -0.116439924045E+04    0.25772E+01   -0.87976E-01  6056   0.358E+00    0.790E-01
RMM:   2    -0.116445712976E+04   -0.57889E-01   -0.58319E-01  4021   0.110E+00    0.535E-01
RMM:   3    -0.116447228658E+04   -0.15157E-01   -0.22479E-01  4969   0.477E-01    0.277E-01
RMM:   4    -0.116447375098E+04   -0.14644E-02   -0.24876E-02  5040   0.120E-01    0.234E-01
RMM:   5    -0.116447383298E+04   -0.82000E-04   -0.20762E-03  5107   0.294E-02    0.201E-01
RMM:   6    -0.116447378637E+04    0.46610E-04   -0.25615E-04  4483   0.115E-02    0.138E-01
RMM:   7    -0.116447371224E+04    0.74124E-04   -0.25871E-04  3785   0.267E-02    0.237E-02
RMM:   8    -0.116447371745E+04   -0.52088E-05   -0.10523E-04  3527   0.775E-03    0.252E-02
RMM:   9    -0.116447371274E+04    0.47107E-05   -0.21768E-05  2309   0.713E-03
      9 T=   599. E= -.11410367E+04 F= -.11644737E+04 E0= -.11643906E+04  EK= 0.25022E+02 SP= -.21E+01 SK= 0.51E+00
 bond charge predicted
 prediction of wavefunctions
       N       E                     dE             d eps       ncg     rms          rms(c)
DAV:   1    -0.116219532425E+04    0.22784E+01   -0.68356E-01  6248   0.327E+00    0.672E-01
RMM:   2    -0.116224219470E+04   -0.46870E-01   -0.46828E-01  3981   0.986E-01    0.470E-01
RMM:   3    -0.116225663421E+04   -0.14440E-01   -0.20033E-01  5056   0.437E-01    0.246E-01
RMM:   4    -0.116225742618E+04   -0.79196E-03   -0.16537E-02  5048   0.101E-01    0.204E-01
RMM:   5    -0.116225749093E+04   -0.64754E-04   -0.15570E-03  5067   0.262E-02    0.174E-01
RMM:   6    -0.116225745057E+04    0.40362E-04   -0.19810E-04  4161   0.101E-02    0.114E-01
RMM:   7    -0.116225739376E+04    0.56809E-04   -0.22256E-04  3784   0.246E-02    0.232E-02
RMM:   8    -0.116225739849E+04   -0.47290E-05   -0.87144E-05  3466   0.687E-03
     10 T=   564. E= -.11410289E+04 F= -.11622574E+04 E0= -.11621776E+04  EK= 0.23545E+02 SP= -.32E+01 SK= 0.91E+00
 bond charge predicted
 prediction of wavefunctions
       N       E                     dE             d eps       ncg     rms          rms(c)
DAV:   1    -0.116043323381E+04    0.18242E+01   -0.49222E-01  6368   0.301E+00    0.558E-01
RMM:   2    -0.116047180221E+04   -0.38568E-01   -0.38342E-01  3996   0.887E-01    0.434E-01
RMM:   3    -0.116048396634E+04   -0.12164E-01   -0.16768E-01  5097   0.388E-01    0.207E-01
RMM:   4    -0.116048452965E+04   -0.56332E-03   -0.11887E-02  5139   0.817E-02    0.173E-01
RMM:   5    -0.116048455607E+04   -0.26420E-04   -0.99970E-04  4982   0.215E-02    0.146E-01
RMM:   6    -0.116048450977E+04    0.46301E-04   -0.15746E-04  3985   0.119E-02    0.812E-02
RMM:   7    -0.116048447808E+04    0.31692E-04   -0.15792E-04  3737   0.189E-02    0.198E-02
RMM:   8    -0.116048448176E+04   -0.36854E-05   -0.69822E-05  3168   0.671E-03
     11 T=   543. E= -.11410216E+04 F= -.11604845E+04 E0= -.11604068E+04  EK= 0.22685E+02 SP= -.47E+01 SK= 0.15E+01
 bond charge predicted
 prediction of wavefunctions
       N       E                     dE             d eps       ncg     rms          rms(c)
DAV:   1    -0.115921272289E+04    0.12718E+01   -0.41441E-01  6792   0.285E+00    0.537E-01
RMM:   2    -0.115924647009E+04   -0.33747E-01   -0.33563E-01  4015   0.829E-01    0.415E-01
RMM:   3    -0.115925649625E+04   -0.10026E-01   -0.14291E-01  5074   0.364E-01    0.180E-01
RMM:   4    -0.115925700608E+04   -0.50983E-03   -0.10888E-02  5128   0.786E-02    0.147E-01
RMM:   5    -0.115925703002E+04   -0.23937E-04   -0.88292E-04  4910   0.196E-02    0.120E-01
RMM:   6    -0.115925699738E+04    0.32637E-04   -0.12747E-04  3901   0.115E-02    0.679E-02
RMM:   7    -0.115925697748E+04    0.19899E-04   -0.11706E-04  3704   0.152E-02    0.151E-02
RMM:   8    -0.115925698026E+04   -0.27769E-05   -0.49627E-05  2900   0.606E-03
     12 T=   540. E= -.11410188E+04 F= -.11592570E+04 E0= -.11591806E+04  EK= 0.22565E+02 SP= -.65E+01 SK= 0.22E+01
 bond charge predicted
 prediction of wavefunctions
       N       E                     dE             d eps       ncg     rms          rms(c)
DAV:   1    -0.115855315719E+04    0.70382E+00   -0.35295E-01  6760   0.289E+00    0.496E-01
RMM:   2    -0.115858460221E+04   -0.31445E-01   -0.31389E-01  3990   0.825E-01    0.425E-01
RMM:   3    -0.115859416219E+04   -0.95600E-02   -0.13827E-01  5099   0.356E-01    0.177E-01
RMM:   4    -0.115859458923E+04   -0.42704E-03   -0.91137E-03  5142   0.700E-02    0.149E-01
RMM:   5    -0.115859459993E+04   -0.10699E-04   -0.74094E-04  4854   0.175E-02    0.121E-01
RMM:   6    -0.115859456068E+04    0.39252E-04   -0.11621E-04  3813   0.132E-02    0.682E-02
RMM:   7    -0.115859454093E+04    0.19750E-04   -0.14340E-04  3831   0.161E-02    0.178E-02
RMM:   8    -0.115859454368E+04   -0.27513E-05   -0.52743E-05  3177   0.519E-03
     13 T=   557. E= -.11410172E+04 F= -.11585945E+04 E0= -.11585189E+04  EK= 0.23246E+02 SP= -.88E+01 SK= 0.31E+01
 bond charge predicted
 prediction of wavefunctions
       N       E                     dE             d eps       ncg     rms          rms(c)
DAV:   1    -0.115839205142E+04    0.20249E+00   -0.34486E-01  6592   0.305E+00    0.525E-01
RMM:   2    -0.115842490745E+04   -0.32856E-01   -0.33423E-01  3896   0.898E-01    0.479E-01
RMM:   3    -0.115843533917E+04   -0.10432E-01   -0.15585E-01  5014   0.384E-01    0.193E-01
RMM:   4    -0.115843621756E+04   -0.87838E-03   -0.13593E-02  5141   0.802E-02    0.167E-01
RMM:   5    -0.115843622660E+04   -0.90447E-05   -0.97603E-04  4946   0.201E-02    0.137E-01
RMM:   6    -0.115843617345E+04    0.53149E-04   -0.14514E-04  3866   0.147E-02    0.777E-02
RMM:   7    -0.115843614537E+04    0.28087E-04   -0.18531E-04  3812   0.195E-02    0.195E-02
RMM:   8    -0.115843615071E+04   -0.53442E-05   -0.79291E-05  3353   0.619E-03
     14 T=   592. E= -.11410149E+04 F= -.11584362E+04 E0= -.11583609E+04  EK= 0.24719E+02 SP= -.11E+02 SK= 0.40E+01
 bond charge predicted
 prediction of wavefunctions
       N       E                     dE             d eps       ncg     rms          rms(c)
DAV:   1    -0.115861529639E+04   -0.17915E+00   -0.36289E-01  6264   0.330E+00    0.599E-01
RMM:   2    -0.115865433414E+04   -0.39038E-01   -0.40491E-01  3861   0.103E+00    0.565E-01
RMM:   3    -0.115866486393E+04   -0.10530E-01   -0.17524E-01  4836   0.425E-01    0.201E-01
RMM:   4    -0.115866690915E+04   -0.20452E-02   -0.25343E-02  5140   0.105E-01    0.187E-01
RMM:   5    -0.115866692480E+04   -0.15647E-04   -0.15917E-03  5016   0.257E-02    0.153E-01
RMM:   6    -0.115866686211E+04    0.62691E-04   -0.19371E-04  4055   0.153E-02    0.977E-02
RMM:   7    -0.115866680885E+04    0.53258E-04   -0.25033E-04  3747   0.250E-02    0.178E-02
RMM:   8    -0.115866681766E+04   -0.88095E-05   -0.11569E-04  3482   0.765E-03    0.209E-02
RMM:   9    -0.115866681414E+04    0.35204E-05   -0.16254E-05  2127   0.678E-03
     15 T=   645. E= -.11410140E+04 F= -.11586668E+04 E0= -.11585918E+04  EK= 0.26922E+02 SP= -.14E+02 SK= 0.49E+01
 bond charge predicted
 prediction of wavefunctions
       N       E                     dE             d eps       ncg     rms          rms(c)
DAV:   1    -0.115908157927E+04   -0.41476E+00   -0.40963E-01  6176   0.358E+00    0.658E-01
RMM:   2    -0.115912779115E+04   -0.46212E-01   -0.48737E-01  3843   0.115E+00    0.644E-01
RMM:   3    -0.115913856632E+04   -0.10775E-01   -0.19682E-01  4694   0.465E-01    0.220E-01
RMM:   4    -0.115914181922E+04   -0.32529E-02   -0.37611E-02  5141   0.127E-01    0.218E-01
RMM:   5    -0.115914183828E+04   -0.19067E-04   -0.22054E-03  5053   0.299E-02    0.182E-01
RMM:   6    -0.115914176102E+04    0.77260E-04   -0.24832E-04  4200   0.162E-02    0.127E-01
RMM:   7    -0.115914167006E+04    0.90964E-04   -0.35219E-04  3767   0.308E-02    0.199E-02
RMM:   8    -0.115914168444E+04   -0.14382E-04   -0.18797E-04  4228   0.980E-03    0.274E-02
RMM:   9    -0.115914167826E+04    0.61807E-05   -0.18258E-05  2145   0.518E-03
     16 T=   713. E= -.11410173E+04 F= -.11591417E+04 E0= -.11590669E+04  EK= 0.29757E+02 SP= -.17E+02 SK= 0.57E+01
 bond charge predicted
 prediction of wavefunctions
       N       E                     dE             d eps       ncg     rms          rms(c)
DAV:   1    -0.115962305225E+04   -0.48137E+00   -0.44705E-01  6120   0.385E+00    0.710E-01
RMM:   2    -0.115967803765E+04   -0.54985E-01   -0.58149E-01  3850   0.126E+00    0.712E-01
RMM:   3    -0.115968910945E+04   -0.11072E-01   -0.21917E-01  4605   0.503E-01    0.246E-01
RMM:   4    -0.115969346172E+04   -0.43523E-02   -0.49002E-02  5141   0.147E-01    0.251E-01
RMM:   5    -0.115969346635E+04   -0.46315E-05   -0.27532E-03  5077   0.342E-02    0.212E-01
RMM:   6    -0.115969336392E+04    0.10243E-03   -0.30065E-04  4303   0.177E-02    0.155E-01
RMM:   7    -0.115969322172E+04    0.14221E-03   -0.51299E-04  3752   0.379E-02    0.244E-02
RMM:   8    -0.115969324174E+04   -0.20023E-04   -0.26812E-04  4472   0.116E-02    0.306E-02
RMM:   9    -0.115969323483E+04    0.69094E-05   -0.24122E-05  2286   0.563E-03
     17 T=   792. E= -.11410248E+04 F= -.11596932E+04 E0= -.11596185E+04  EK= 0.33083E+02 SP= -.21E+02 SK= 0.63E+01
 bond charge predicted
 prediction of wavefunctions
       N       E                     dE             d eps       ncg     rms          rms(c)
DAV:   1    -0.116008906318E+04   -0.39582E+00   -0.49696E-01  6056   0.412E+00    0.796E-01
RMM:   2    -0.116015334976E+04   -0.64287E-01   -0.68235E-01  3866   0.137E+00    0.778E-01
RMM:   3    -0.116016363366E+04   -0.10284E-01   -0.23454E-01  4460   0.546E-01    0.251E-01
RMM:   4    -0.116016985214E+04   -0.62185E-02   -0.67836E-02  5141   0.177E-01    0.271E-01
RMM:   5    -0.116016985277E+04   -0.62687E-06   -0.36290E-03  5086   0.399E-02    0.226E-01
RMM:   6    -0.116016976539E+04    0.87373E-04   -0.37028E-04  4540   0.166E-02    0.178E-01
RMM:   7    -0.116016958012E+04    0.18527E-03   -0.52695E-04  3734   0.394E-02    0.357E-02
RMM:   8    -0.116016959121E+04   -0.11087E-04   -0.29246E-04  4074   0.150E-02    0.325E-02
RMM:   9    -0.116016959011E+04    0.10958E-05   -0.65297E-05  2892   0.691E-03
     18 T=   880. E= -.11410350E+04 F= -.11601696E+04 E0= -.11600950E+04  EK= 0.36746E+02 SP= -.24E+02 SK= 0.65E+01
 bond charge predicted
 prediction of wavefunctions
       N       E                     dE             d eps       ncg     rms          rms(c)
DAV:   1    -0.116034561125E+04   -0.17602E+00   -0.58801E-01  6096   0.435E+00    0.856E-01
RMM:   2    -0.116041999279E+04   -0.74382E-01   -0.77998E-01  3881   0.144E+00    0.808E-01
RMM:   3    -0.116043263956E+04   -0.12647E-01   -0.27068E-01  4499   0.581E-01    0.291E-01
RMM:   4    -0.116043928960E+04   -0.66500E-02   -0.73557E-02  5141   0.188E-01    0.305E-01
RMM:   5    -0.116043928348E+04    0.61186E-05   -0.38499E-03  5104   0.407E-02    0.260E-01
RMM:   6    -0.116043919014E+04    0.93343E-04   -0.38823E-04  4559   0.162E-02    0.210E-01
RMM:   7    -0.116043895336E+04    0.23677E-03   -0.63728E-04  3736   0.434E-02    0.408E-02
RMM:   8    -0.116043896372E+04   -0.10354E-04   -0.35176E-04  3956   0.172E-02    0.400E-02
RMM:   9    -0.116043896448E+04   -0.75772E-06   -0.96978E-05  3046   0.813E-03
     19 T=   972. E= -.11410449E+04 F= -.11604390E+04 E0= -.11603645E+04  EK= 0.40568E+02 SP= -.28E+02 SK= 0.64E+01
 bond charge predicted
 prediction of wavefunctions
       N       E                     dE             d eps       ncg     rms          rms(c)
DAV:   1    -0.116030353446E+04    0.13543E+00   -0.66357E-01  6136   0.456E+00    0.938E-01
RMM:   2    -0.116038621709E+04   -0.82683E-01   -0.85883E-01  3918   0.147E+00    0.808E-01
RMM:   3    -0.116040067075E+04   -0.14454E-01   -0.29494E-01  4497   0.612E-01    0.303E-01
RMM:   4    -0.116040809508E+04   -0.74243E-02   -0.83720E-02  5140   0.207E-01    0.307E-01
RMM:   5    -0.116040808584E+04    0.92357E-05   -0.42748E-03  5124   0.436E-02    0.257E-01
RMM:   6    -0.116040799892E+04    0.86926E-04   -0.43356E-04  4556   0.169E-02    0.202E-01
RMM:   7    -0.116040780591E+04    0.19301E-03   -0.53349E-04  3738   0.390E-02    0.394E-02
RMM:   8    -0.116040781858E+04   -0.12668E-04   -0.32999E-04  3987   0.165E-02    0.426E-02
RMM:   9    -0.116040781659E+04    0.19853E-05   -0.82439E-05  3003   0.794E-03
     20 T=  1062. E= -.11410561E+04 F= -.11604078E+04 E0= -.11603335E+04  EK= 0.44356E+02 SP= -.31E+02 SK= 0.59E+01
 bond charge predicted
 prediction of wavefunctions
       N       E                     dE             d eps       ncg     rms          rms(c)
DAV:   1    -0.115992039433E+04    0.48742E+00   -0.79063E-01  6080   0.475E+00    0.987E-01
RMM:   2    -0.116001487925E+04   -0.94485E-01   -0.96430E-01  3983   0.148E+00    0.797E-01
RMM:   3    -0.116003199180E+04   -0.17113E-01   -0.32158E-01  4599   0.625E-01    0.346E-01
RMM:   4    -0.116003889045E+04   -0.68986E-02   -0.81757E-02  5119   0.207E-01    0.332E-01
RMM:   5    -0.116003888907E+04    0.13760E-05   -0.43154E-03  5121   0.429E-02    0.281E-01
RMM:   6    -0.116003880066E+04    0.88413E-04   -0.44455E-04  4501   0.168E-02    0.221E-01
RMM:   7    -0.116003859953E+04    0.20113E-03   -0.54863E-04  3748   0.389E-02    0.417E-02
RMM:   8    -0.116003861404E+04   -0.14506E-04   -0.34633E-04  4102   0.159E-02    0.431E-02
RMM:   9    -0.116003860908E+04    0.49621E-05   -0.69372E-05  2879   0.779E-03
     21 T=  1148. E= -.11410677E+04 F= -.11600386E+04 E0= -.11599644E+04  EK= 0.47933E+02 SP= -.34E+02 SK= 0.52E+01
 bond charge predicted
 prediction of wavefunctions
       N       E                     dE             d eps       ncg     rms          rms(c)
DAV:   1    -0.115920348054E+04    0.83513E+00   -0.92837E-01  6088   0.493E+00    0.107E+00
RMM:   2    -0.115930890232E+04   -0.10542E+00   -0.10629E+00  4009   0.152E+00    0.807E-01
RMM:   3    -0.115932768061E+04   -0.18778E-01   -0.34543E-01  4586   0.655E-01    0.370E-01
RMM:   4    -0.115933525792E+04   -0.75773E-02   -0.92854E-02  5000   0.229E-01    0.341E-01
RMM:   5    -0.115933532994E+04   -0.72023E-04   -0.54922E-03  5130   0.487E-02    0.287E-01
RMM:   6    -0.115933525778E+04    0.72162E-04   -0.52393E-04  4599   0.173E-02    0.227E-01
RMM:   7    -0.115933506946E+04    0.18831E-03   -0.50057E-04  3751   0.370E-02    0.432E-02
RMM:   8    -0.115933508014E+04   -0.10671E-04   -0.32208E-04  3975   0.162E-02    0.460E-02
RMM:   9    -0.115933507786E+04    0.22755E-05   -0.78287E-05  3012   0.811E-03
     22 T=  1225. E= -.11410782E+04 F= -.11593351E+04 E0= -.11592611E+04  EK= 0.51130E+02 SP= -.37E+02 SK= 0.42E+01
 bond charge predicted
 prediction of wavefunctions
       N       E                     dE             d eps       ncg     rms          rms(c)
DAV:   1    -0.115820103741E+04    0.11340E+01   -0.10954E+00  6080   0.509E+00    0.114E+00
RMM:   2    -0.115831563947E+04   -0.11460E+00   -0.11541E+00  3986   0.161E+00    0.860E-01
RMM:   3    -0.115833567325E+04   -0.20034E-01   -0.37881E-01  4508   0.700E-01    0.396E-01
RMM:   4    -0.115834508686E+04   -0.94136E-02   -0.11376E-01  4972   0.257E-01    0.367E-01
RMM:   5    -0.115834516269E+04   -0.75827E-04   -0.65602E-03  5138   0.540E-02    0.303E-01
RMM:   6    -0.115834508969E+04    0.73002E-04   -0.60207E-04  4683   0.186E-02    0.239E-01
RMM:   7    -0.115834489259E+04    0.19710E-03   -0.52056E-04  3746   0.380E-02    0.456E-02
RMM:   8    -0.115834490215E+04   -0.95595E-05   -0.34585E-04  3927   0.179E-02    0.572E-02
RMM:   9    -0.115834490025E+04    0.18954E-05   -0.97893E-05  3191   0.870E-03
     23 T=  1289. E= -.11410878E+04 F= -.11583449E+04 E0= -.11582712E+04  EK= 0.53802E+02 SP= -.40E+02 SK= 0.32E+01
 bond charge predicted
 prediction of wavefunctions
       N       E                     dE             d eps       ncg     rms          rms(c)
DAV:   1    -0.115696559531E+04    0.13793E+01   -0.12751E+00  6064   0.523E+00    0.120E+00
RMM:   2    -0.115708792778E+04   -0.12233E+00   -0.12344E+00  3929   0.172E+00    0.934E-01
RMM:   3    -0.115710979072E+04   -0.21863E-01   -0.42375E-01  4400   0.754E-01    0.417E-01
RMM:   4    -0.115712205988E+04   -0.12269E-01   -0.14320E-01  5053   0.288E-01    0.403E-01
RMM:   5    -0.115712205888E+04    0.99701E-06   -0.71450E-03  5139   0.563E-02    0.334E-01
RMM:   6    -0.115712198104E+04    0.77846E-04   -0.64469E-04  4717   0.191E-02    0.267E-01
RMM:   7    -0.115712174176E+04    0.23928E-03   -0.59395E-04  3740   0.406E-02    0.517E-02
RMM:   8    -0.115712175117E+04   -0.94147E-05   -0.44118E-04  3973   0.212E-02    0.734E-02
RMM:   9    -0.115712174946E+04    0.17185E-05   -0.12992E-04  3372   0.928E-03    0.566E-02
RMM:  10    -0.115712173512E+04    0.14336E-04   -0.40503E-05  2622   0.932E-03    0.142E-02
RMM:  11    -0.115712173509E+04    0.27198E-07   -0.17889E-05  2133   0.548E-03
     24 T=  1337. E= -.11410962E+04 F= -.11571217E+04 E0= -.11570484E+04  EK= 0.55819E+02 SP= -.42E+02 SK= 0.22E+01
 bond charge predicted
 prediction of wavefunctions
       N       E                     dE             d eps       ncg     rms          rms(c)
DAV:   1    -0.115558130107E+04    0.15404E+01   -0.13654E+00  6056   0.533E+00    0.127E+00
RMM:   2    -0.115570972888E+04   -0.12843E+00   -0.13012E+00  3903   0.181E+00    0.100E+00
RMM:   3    -0.115573115092E+04   -0.21422E-01   -0.44759E-01  4317   0.794E-01    0.413E-01
RMM:   4    -0.115574582276E+04   -0.14672E-01   -0.16817E-01  5106   0.313E-01    0.410E-01
RMM:   5    -0.115574577923E+04    0.43535E-04   -0.77112E-03  5139   0.581E-02    0.340E-01
RMM:   6    -0.115574571388E+04    0.65347E-04   -0.68271E-04  4755   0.188E-02    0.279E-01
RMM:   7    -0.115574545369E+04    0.26019E-03   -0.62526E-04  3739   0.418E-02    0.532E-02
RMM:   8    -0.115574545895E+04   -0.52691E-05   -0.47242E-04  3974   0.225E-02    0.763E-02
RMM:   9    -0.115574545903E+04   -0.77649E-07   -0.14083E-04  3409   0.952E-03    0.606E-02
RMM:  10    -0.115574544416E+04    0.14870E-04   -0.35196E-05  2443   0.916E-03    0.199E-02
RMM:  11    -0.115574544345E+04    0.71239E-06   -0.22394E-05  2184   0.575E-03
     25 T=  1367. E= -.11411081E+04 F= -.11557454E+04 E0= -.11556725E+04  EK= 0.57093E+02 SP= -.44E+02 SK= 0.13E+01
 bond charge predicted
 prediction of wavefunctions
       N       E                     dE             d eps       ncg     rms          rms(c)
DAV:   1    -0.115412747949E+04    0.16180E+01   -0.14944E+00  6048   0.540E+00    0.126E+00
RMM:   2    -0.115425851507E+04   -0.13104E+00   -0.13274E+00  3893   0.187E+00    0.105E+00
RMM:   3    -0.115428064191E+04   -0.22127E-01   -0.46973E-01  4345   0.804E-01    0.426E-01
RMM:   4    -0.115429526443E+04   -0.14623E-01   -0.16689E-01  5118   0.308E-01    0.434E-01
RMM:   5    -0.115429514686E+04    0.11757E-03   -0.74454E-03  5141   0.582E-02    0.357E-01
RMM:   6    -0.115429505267E+04    0.94192E-04   -0.67785E-04  4724   0.201E-02    0.286E-01
RMM:   7    -0.115429476450E+04    0.28817E-03   -0.77415E-04  3739   0.468E-02    0.499E-02
RMM:   8    -0.115429478003E+04   -0.15528E-04   -0.51502E-04  3978   0.232E-02    0.923E-02
RMM:   9    -0.115429477569E+04    0.43340E-05   -0.14761E-04  3488   0.101E-02    0.676E-02
RMM:  10    -0.115429475813E+04    0.17566E-04   -0.50030E-05  2925   0.102E-02    0.165E-02
RMM:  11    -0.115429475825E+04   -0.11727E-06   -0.18927E-05  2164   0.538E-03
     26 T=  1380. E= -.11411139E+04 F= -.11542948E+04 E0= -.11542222E+04  EK= 0.57600E+02 SP= -.45E+02 SK= 0.57E+00
 bond charge predicted
 prediction of wavefunctions
       N       E                     dE             d eps       ncg     rms          rms(c)
DAV:   1    -0.115266068350E+04    0.16341E+01   -0.15883E+00  6040   0.544E+00    0.128E+00
RMM:   2    -0.115279075650E+04   -0.13007E+00   -0.13168E+00  3888   0.189E+00    0.107E+00
RMM:   3    -0.115281211688E+04   -0.21360E-01   -0.47007E-01  4339   0.810E-01    0.415E-01
RMM:   4    -0.115282687618E+04   -0.14759E-01   -0.16841E-01  5109   0.310E-01    0.433E-01
RMM:   5    -0.115282673562E+04    0.14056E-03   -0.74012E-03  5137   0.583E-02    0.359E-01
RMM:   6    -0.115282665541E+04    0.80210E-04   -0.64440E-04  4721   0.191E-02    0.295E-01
RMM:   7    -0.115282636587E+04    0.28954E-03   -0.72777E-04  3739   0.452E-02    0.531E-02
RMM:   8    -0.115282637438E+04   -0.85098E-05   -0.52592E-04  3974   0.243E-02    0.928E-02
RMM:   9    -0.115282637225E+04    0.21326E-05   -0.15230E-04  3438   0.990E-03    0.713E-02
RMM:  10    -0.115282635487E+04    0.17372E-04   -0.43949E-05  2835   0.101E-02    0.244E-02
RMM:  11    -0.115282635427E+04    0.60545E-06   -0.23092E-05  2209   0.563E-03
     27 T=  1373. E= -.11411125E+04 F= -.11528264E+04 E0= -.11527542E+04  EK= 0.57336E+02 SP= -.46E+02 SK= 0.15E+00
 bond charge predicted
 prediction of wavefunctions
       N       E                     dE             d eps       ncg     rms          rms(c)
DAV:   1    -0.115123606663E+04    0.15903E+01   -0.16760E+00  6032   0.543E+00    0.129E+00
RMM:   2    -0.115136705582E+04   -0.13099E+00   -0.13208E+00  3900   0.188E+00    0.107E+00
RMM:   3    -0.115138862312E+04   -0.21567E-01   -0.46849E-01  4355   0.807E-01    0.426E-01
RMM:   4    -0.115140282213E+04   -0.14199E-01   -0.16525E-01  5058   0.310E-01    0.434E-01
RMM:   5    -0.115140269603E+04    0.12610E-03   -0.75397E-03  5139   0.598E-02    0.359E-01
RMM:   6    -0.115140261995E+04    0.76082E-04   -0.63095E-04  4710   0.188E-02    0.296E-01
RMM:   7    -0.115140233861E+04    0.28135E-03   -0.68910E-04  3740   0.437E-02    0.545E-02
RMM:   8    -0.115140234462E+04   -0.60147E-05   -0.52300E-04  3963   0.248E-02    0.978E-02
RMM:   9    -0.115140234178E+04    0.28420E-05   -0.14969E-04  3447   0.989E-03    0.733E-02
RMM:  10    -0.115140232529E+04    0.16489E-04   -0.39810E-05  2635   0.951E-03    0.267E-02
RMM:  11    -0.115140232444E+04    0.84595E-06   -0.21976E-05  2181   0.567E-03
     28 T=  1350. E= -.11411082E+04 F= -.11514023E+04 E0= -.11513305E+04  EK= 0.56361E+02 SP= -.46E+02 SK= 0.14E-02
 bond charge predicted
 prediction of wavefunctions
       N       E                     dE             d eps       ncg     rms          rms(c)
DAV:   1    -0.114990615814E+04    0.14962E+01   -0.17541E+00  6008   0.542E+00    0.128E+00
RMM:   2    -0.115003558131E+04   -0.12942E+00   -0.12987E+00  3912   0.185E+00    0.104E+00
RMM:   3    -0.115005756460E+04   -0.21983E-01   -0.46126E-01  4371   0.796E-01    0.435E-01
RMM:   4    -0.115007085545E+04   -0.13291E-01   -0.15829E-01  5021   0.307E-01    0.435E-01
RMM:   5    -0.115007078783E+04    0.67620E-04   -0.76550E-03  5136   0.599E-02    0.361E-01
RMM:   6    -0.115007071799E+04    0.69844E-04   -0.63046E-04  4721   0.185E-02    0.299E-01
RMM:   7    -0.115007044993E+04    0.26806E-03   -0.63595E-04  3744   0.418E-02    0.569E-02
RMM:   8    -0.115007045343E+04   -0.35034E-05   -0.51243E-04  3968   0.249E-02    0.991E-02
RMM:   9    -0.115007045092E+04    0.25114E-05   -0.14568E-04  3437   0.970E-03    0.760E-02
RMM:  10    -0.115007043498E+04    0.15942E-04   -0.33137E-05  2346   0.875E-03    0.325E-02
RMM:  11    -0.115007043347E+04    0.15140E-05   -0.25394E-05  2203   0.596E-03
     29 T=  1312. E= -.11410960E+04 F= -.11500704E+04 E0= -.11499988E+04  EK= 0.54783E+02 SP= -.46E+02 SK= 0.86E-01
 bond charge predicted
 prediction of wavefunctions
       N       E                     dE             d eps       ncg     rms          rms(c)
DAV:   1    -0.114873471871E+04    0.13357E+01   -0.17170E+00  6000   0.537E+00    0.124E+00
RMM:   2    -0.114885668850E+04   -0.12197E+00   -0.12212E+00  3913   0.180E+00    0.101E+00
RMM:   3    -0.114887852773E+04   -0.21839E-01   -0.44574E-01  4395   0.777E-01    0.425E-01
RMM:   4    -0.114889069808E+04   -0.12170E-01   -0.14726E-01  5002   0.298E-01    0.423E-01
RMM:   5    -0.114889063648E+04    0.61598E-04   -0.71933E-03  5125   0.586E-02    0.350E-01
RMM:   6    -0.114889057006E+04    0.66418E-04   -0.57687E-04  4680   0.179E-02    0.290E-01
RMM:   7    -0.114889031722E+04    0.25284E-03   -0.59790E-04  3769   0.398E-02    0.564E-02
RMM:   8    -0.114889032000E+04   -0.27791E-05   -0.49566E-04  3980   0.246E-02    0.981E-02
RMM:   9    -0.114889031706E+04    0.29447E-05   -0.13739E-04  3389   0.948E-03    0.747E-02
RMM:  10    -0.114889030162E+04    0.15438E-04   -0.32608E-05  2368   0.844E-03    0.311E-02
RMM:  11    -0.114889030045E+04    0.11718E-05   -0.25593E-05  2221   0.586E-03
     30 T=  1263. E= -.11410861E+04 F= -.11488903E+04 E0= -.11488186E+04  EK= 0.52749E+02 SP= -.45E+02 SK= 0.35E+00
 bond charge predicted
 prediction of wavefunctions
       N       E                     dE             d eps       ncg     rms          rms(c)
DAV:   1    -0.114776301061E+04    0.11273E+01   -0.16009E+00  5976   0.527E+00    0.120E+00
RMM:   2    -0.114787662331E+04   -0.11361E+00   -0.11347E+00  3916   0.174E+00    0.983E-01
RMM:   3    -0.114789774127E+04   -0.21118E-01   -0.42295E-01  4409   0.753E-01    0.413E-01
RMM:   4    -0.114790902641E+04   -0.11285E-01   -0.13722E-01  4980   0.287E-01    0.412E-01
RMM:   5    -0.114790898152E+04    0.44887E-04   -0.68699E-03  5121   0.576E-02    0.341E-01
RMM:   6    -0.114790891844E+04    0.63080E-04   -0.54178E-04  4668   0.175E-02    0.283E-01
RMM:   7    -0.114790868092E+04    0.23752E-03   -0.56611E-04  3770   0.386E-02    0.551E-02
RMM:   8    -0.114790868416E+04   -0.32402E-05   -0.47532E-04  3983   0.241E-02    0.981E-02
RMM:   9    -0.114790868128E+04    0.28881E-05   -0.13019E-04  3354   0.924E-03    0.754E-02
RMM:  10    -0.114790866637E+04    0.14906E-04   -0.29072E-05  2290   0.801E-03    0.336E-02
RMM:  11    -0.114790866509E+04    0.12795E-05   -0.27771E-05  2314   0.573E-03
     31 T=  1208. E= -.11410732E+04 F= -.11479087E+04 E0= -.11478367E+04  EK= 0.50431E+02 SP= -.44E+02 SK= 0.72E+00
 bond charge predicted
 prediction of wavefunctions
       N       E                     dE             d eps       ncg     rms          rms(c)
DAV:   1    -0.114703380281E+04    0.87486E+00   -0.14894E+00  6008   0.515E+00    0.116E+00
RMM:   2    -0.114713905872E+04   -0.10526E+00   -0.10508E+00  3905   0.168E+00    0.956E-01
RMM:   3    -0.114715942373E+04   -0.20365E-01   -0.40161E-01  4416   0.736E-01    0.398E-01
RMM:   4    -0.114717004870E+04   -0.10625E-01   -0.12984E-01  4972   0.280E-01    0.400E-01
RMM:   5    -0.114716998266E+04    0.66040E-04   -0.64405E-03  5112   0.564E-02    0.328E-01
RMM:   6    -0.114716992234E+04    0.60316E-04   -0.50659E-04  4646   0.171E-02    0.272E-01
RMM:   7    -0.114716970229E+04    0.22005E-03   -0.52530E-04  3789   0.367E-02    0.532E-02
RMM:   8    -0.114716970519E+04   -0.28991E-05   -0.45072E-04  3991   0.236E-02    0.979E-02
RMM:   9    -0.114716970131E+04    0.38770E-05   -0.11992E-04  3320   0.893E-03    0.743E-02
RMM:  10    -0.114716968681E+04    0.14503E-04   -0.28455E-05  2322   0.765E-03    0.316E-02
RMM:  11    -0.114716968591E+04    0.89701E-06   -0.27076E-05  2314   0.555E-03
     32 T=  1149. E= -.11410692E+04 F= -.11471697E+04 E0= -.11470970E+04  EK= 0.47988E+02 SP= -.43E+02 SK= 0.11E+01
 bond charge predicted
 prediction of wavefunctions
       N       E                     dE             d eps       ncg     rms          rms(c)
DAV:   1    -0.114655095622E+04    0.61873E+00   -0.12997E+00  5976   0.502E+00    0.109E+00
RMM:   2    -0.114664617735E+04   -0.95221E-01   -0.95056E-01  3894   0.160E+00    0.922E-01
RMM:   3    -0.114666490329E+04   -0.18726E-01   -0.36961E-01  4416   0.708E-01    0.368E-01
RMM:   4    -0.114667480337E+04   -0.99001E-02   -0.11916E-01  5003   0.266E-01    0.383E-01
RMM:   5    -0.114667470787E+04    0.95502E-04   -0.56008E-03  5102   0.532E-02    0.315E-01
RMM:   6    -0.114667465043E+04    0.57442E-04   -0.43572E-04  4561   0.161E-02    0.263E-01
RMM:   7    -0.114667443936E+04    0.21106E-03   -0.49197E-04  3780   0.355E-02    0.538E-02
RMM:   8    -0.114667444174E+04   -0.23726E-05   -0.45649E-04  3989   0.240E-02    0.959E-02
RMM:   9    -0.114667443871E+04    0.30312E-05   -0.11941E-04  3298   0.887E-03    0.736E-02
RMM:  10    -0.114667442433E+04    0.14377E-04   -0.26512E-05  2217   0.782E-03    0.341E-02
RMM:  11    -0.114667442316E+04    0.11699E-05   -0.32071E-05  2473   0.553E-03
     33 T=  1091. E= -.11410648E+04 F= -.11466744E+04 E0= -.11466008E+04  EK= 0.45551E+02 SP= -.41E+02 SK= 0.15E+01
 bond charge predicted
 prediction of wavefunctions
       N       E                     dE             d eps       ncg     rms          rms(c)
DAV:   1    -0.114629830332E+04    0.37612E+00   -0.11273E+00  5984   0.489E+00    0.103E+00
RMM:   2    -0.114638572237E+04   -0.87419E-01   -0.87432E-01  3892   0.153E+00    0.888E-01
RMM:   3    -0.114640318290E+04   -0.17461E-01   -0.34319E-01  4421   0.681E-01    0.339E-01
RMM:   4    -0.114641231890E+04   -0.91360E-02   -0.10903E-01  5017   0.253E-01    0.358E-01
RMM:   5    -0.114641223744E+04    0.81465E-04   -0.51665E-03  5080   0.513E-02    0.294E-01
RMM:   6    -0.114641218022E+04    0.57223E-04   -0.40389E-04  4520   0.159E-02    0.243E-01
RMM:   7    -0.114641198657E+04    0.19364E-03   -0.46366E-04  3767   0.347E-02    0.502E-02
RMM:   8    -0.114641198822E+04   -0.16448E-05   -0.41929E-04  3965   0.230E-02    0.887E-02
RMM:   9    -0.114641198586E+04    0.23584E-05   -0.11079E-04  3302   0.869E-03    0.670E-02
RMM:  10    -0.114641197340E+04    0.12456E-04   -0.23335E-05  2149   0.752E-03    0.317E-02
RMM:  11    -0.114641197223E+04    0.11768E-05   -0.29854E-05  2458   0.520E-03
     34 T=  1035. E= -.11410620E+04 F= -.11464120E+04 E0= -.11463373E+04  EK= 0.43208E+02 SP= -.40E+02 SK= 0.18E+01
 bond charge predicted
 prediction of wavefunctions
       N       E                     dE             d eps       ncg     rms          rms(c)
DAV:   1    -0.114623109330E+04    0.18088E+00   -0.10205E+00  6008   0.477E+00    0.984E-01
RMM:   2    -0.114631200129E+04   -0.80908E-01   -0.81088E-01  3883   0.147E+00    0.853E-01
RMM:   3    -0.114632873372E+04   -0.16732E-01   -0.32277E-01  4425   0.659E-01    0.323E-01
RMM:   4    -0.114633726772E+04   -0.85340E-02   -0.10134E-01  4994   0.244E-01    0.347E-01
RMM:   5    -0.114633721554E+04    0.52180E-04   -0.49771E-03  5067   0.506E-02    0.286E-01
RMM:   6    -0.114633716204E+04    0.53494E-04   -0.38250E-04  4518   0.154E-02    0.237E-01
RMM:   7    -0.114633697894E+04    0.18311E-03   -0.41832E-04  3745   0.332E-02    0.533E-02
RMM:   8    -0.114633697718E+04    0.17588E-05   -0.42004E-04  3966   0.235E-02    0.866E-02
RMM:   9    -0.114633697586E+04    0.13251E-05   -0.11139E-04  3308   0.861E-03    0.668E-02
RMM:  10    -0.114633696341E+04    0.12441E-04   -0.22182E-05  2139   0.734E-03    0.322E-02
RMM:  11    -0.114633696207E+04    0.13474E-05   -0.29831E-05  2457   0.509E-03
     35 T=   982. E= -.11410610E+04 F= -.11463370E+04 E0= -.11462611E+04  EK= 0.40997E+02 SP= -.38E+02 SK= 0.21E+01
 bond charge predicted
 prediction of wavefunctions
       N       E                     dE             d eps       ncg     rms          rms(c)
DAV:   1    -0.114629794740E+04    0.39016E-01   -0.87762E-01  6048   0.467E+00    0.930E-01
RMM:   2    -0.114637162007E+04   -0.73673E-01   -0.74048E-01  3871   0.141E+00    0.824E-01
RMM:   3    -0.114638715010E+04   -0.15530E-01   -0.29907E-01  4424   0.637E-01    0.297E-01
RMM:   4    -0.114639513463E+04   -0.79845E-02   -0.93359E-02  5062   0.232E-01    0.328E-01
RMM:   5    -0.114639504836E+04    0.86270E-04   -0.42064E-03  5059   0.470E-02    0.269E-01
RMM:   6    -0.114639499421E+04    0.54148E-04   -0.33633E-04  4445   0.147E-02    0.223E-01
RMM:   7    -0.114639481837E+04    0.17583E-03   -0.41273E-04  3745   0.329E-02    0.488E-02
RMM:   8    -0.114639481873E+04   -0.35588E-06   -0.39599E-04  3960   0.225E-02    0.801E-02
RMM:   9    -0.114639481766E+04    0.10688E-05   -0.10498E-04  3278   0.845E-03    0.613E-02
RMM:  10    -0.114639480598E+04    0.11683E-04   -0.21633E-05  2133   0.735E-03    0.281E-02
RMM:  11    -0.114639480499E+04    0.99184E-06   -0.27894E-05  2445   0.475E-03
     36 T=   932. E= -.11410636E+04 F= -.11463948E+04 E0= -.11463177E+04  EK= 0.38932E+02 SP= -.36E+02 SK= 0.22E+01
 bond charge predicted
 prediction of wavefunctions
       N       E                     dE             d eps       ncg     rms          rms(c)
DAV:   1    -0.114644595900E+04   -0.51153E-01   -0.75894E-01  6104   0.455E+00    0.874E-01
RMM:   2    -0.114651337654E+04   -0.67418E-01   -0.67884E-01  3871   0.134E+00    0.795E-01
RMM:   3    -0.114652790610E+04   -0.14530E-01   -0.27853E-01  4454   0.612E-01    0.275E-01
RMM:   4    -0.114653512291E+04   -0.72168E-02   -0.83601E-02  5103   0.215E-01    0.311E-01
RMM:   5    -0.114653502633E+04    0.96579E-04   -0.36238E-03  5031   0.432E-02    0.255E-01
RMM:   6    -0.114653496960E+04    0.56728E-04   -0.30169E-04  4374   0.146E-02    0.209E-01
RMM:   7    -0.114653480340E+04    0.16620E-03   -0.41296E-04  3737   0.328E-02    0.437E-02
RMM:   8    -0.114653480736E+04   -0.39630E-05   -0.36154E-04  3949   0.210E-02    0.767E-02
RMM:   9    -0.114653480606E+04    0.13024E-05   -0.96519E-05  3247   0.828E-03
     37 T=   887. E= -.11410607E+04 F= -.11465348E+04 E0= -.11464566E+04  EK= 0.37023E+02 SP= -.34E+02 SK= 0.22E+01
 bond charge predicted
 prediction of wavefunctions
       N       E                     dE             d eps       ncg     rms          rms(c)
DAV:   1    -0.114665398918E+04   -0.11918E+00   -0.67497E-01  6120   0.443E+00    0.892E-01
RMM:   2    -0.114671697663E+04   -0.62987E-01   -0.63990E-01  3877   0.130E+00    0.793E-01
RMM:   3    -0.114672854697E+04   -0.11570E-01   -0.24776E-01  4314   0.603E-01    0.240E-01
RMM:   4    -0.114673674594E+04   -0.81990E-02   -0.92515E-02  5106   0.230E-01    0.282E-01
RMM:   5    -0.114673663588E+04    0.11006E-03   -0.38813E-03  4937   0.461E-02    0.222E-01
RMM:   6    -0.114673658313E+04    0.52752E-04   -0.34207E-04  4375   0.167E-02    0.176E-01
RMM:   7    -0.114673645923E+04    0.12391E-03   -0.32216E-04  3756   0.278E-02    0.417E-02
RMM:   8    -0.114673646111E+04   -0.18881E-05   -0.29711E-04  3923   0.200E-02    0.675E-02
RMM:   9    -0.114673646016E+04    0.94992E-06   -0.87765E-05  3205   0.784E-03
     38 T=   845. E= -.11410562E+04 F= -.11467365E+04 E0= -.11466572E+04  EK= 0.35286E+02 SP= -.32E+02 SK= 0.22E+01
 bond charge predicted
 prediction of wavefunctions
       N       E                     dE             d eps       ncg     rms          rms(c)
DAV:   1    -0.114692648647E+04   -0.19003E+00   -0.61803E-01  6264   0.429E+00    0.806E-01
RMM:   2    -0.114698550333E+04   -0.59017E-01   -0.59632E-01  3883   0.124E+00    0.749E-01
RMM:   3    -0.114699784447E+04   -0.12341E-01   -0.24219E-01  4472   0.570E-01    0.255E-01
RMM:   4    -0.114700398126E+04   -0.61368E-02   -0.70913E-02  5118   0.195E-01    0.290E-01
RMM:   5    -0.114700389117E+04    0.90090E-04   -0.29887E-03  5043   0.381E-02    0.241E-01
RMM:   6    -0.114700384230E+04    0.48873E-04   -0.24074E-04  4204   0.130E-02    0.202E-01
RMM:   7    -0.114700368553E+04    0.15676E-03   -0.39458E-04  3823   0.306E-02    0.400E-02
RMM:   8    -0.114700368876E+04   -0.32272E-05   -0.29277E-04  3906   0.185E-02    0.647E-02
RMM:   9    -0.114700368782E+04    0.93825E-06   -0.83034E-05  3125   0.784E-03
     39 T=   808. E= -.11410526E+04 F= -.11470037E+04 E0= -.11469234E+04  EK= 0.33752E+02 SP= -.30E+02 SK= 0.20E+01
 bond charge predicted
 prediction of wavefunctions
       N       E                     dE             d eps       ncg     rms          rms(c)
DAV:   1    -0.114729156010E+04   -0.28787E+00   -0.58187E-01  6464   0.417E+00    0.815E-01
RMM:   2    -0.114734805970E+04   -0.56500E-01   -0.57151E-01  3888   0.121E+00    0.729E-01
RMM:   3    -0.114735949313E+04   -0.11433E-01   -0.22726E-01  4420   0.560E-01    0.246E-01
RMM:   4    -0.114736571883E+04   -0.62257E-02   -0.72313E-02  5039   0.201E-01    0.273E-01
RMM:   5    -0.114736565198E+04    0.66852E-04   -0.32871E-03  5020   0.416E-02    0.219E-01
RMM:   6    -0.114736560380E+04    0.48177E-04   -0.26858E-04  4277   0.147E-02    0.176E-01
RMM:   7    -0.114736548777E+04    0.11603E-03   -0.28379E-04  3768   0.255E-02    0.410E-02
RMM:   8    -0.114736548688E+04    0.88906E-06   -0.24390E-04  3902   0.177E-02    0.582E-02
RMM:   9    -0.114736548705E+04   -0.17154E-06   -0.77362E-05  3136   0.742E-03
     40 T=   778. E= -.11410455E+04 F= -.11473655E+04 E0= -.11472845E+04  EK= 0.32471E+02 SP= -.28E+02 SK= 0.18E+01
 bond charge predicted
 prediction of wavefunctions
       N       E                     dE             d eps       ncg     rms          rms(c)
DAV:   1    -0.114780047584E+04   -0.43499E+00   -0.50523E-01  6512   0.407E+00    0.774E-01
RMM:   2    -0.114785315247E+04   -0.52677E-01   -0.53321E-01  3889   0.116E+00    0.703E-01
RMM:   3    -0.114786406678E+04   -0.10914E-01   -0.21417E-01  4444   0.540E-01    0.234E-01
RMM:   4    -0.114786974288E+04   -0.56761E-02   -0.65914E-02  5060   0.191E-01    0.261E-01
RMM:   5    -0.114786968348E+04    0.59398E-04   -0.29820E-03  5015   0.392E-02    0.211E-01
RMM:   6    -0.114786964409E+04    0.39386E-04   -0.24454E-04  4261   0.131E-02    0.175E-01
RMM:   7    -0.114786953092E+04    0.11317E-03   -0.24887E-04  3778   0.233E-02    0.454E-02
RMM:   8    -0.114786952552E+04    0.54053E-05   -0.24528E-04  3894   0.183E-02    0.556E-02
RMM:   9    -0.114786952550E+04    0.15163E-07   -0.74439E-05  3150   0.726E-03
     41 T=   754. E= -.11410466E+04 F= -.11478695E+04 E0= -.11477880E+04  EK= 0.31487E+02 SP= -.26E+02 SK= 0.15E+01
 bond charge predicted
 prediction of wavefunctions
       N       E                     dE             d eps       ncg     rms          rms(c)
DAV:   1    -0.114845356518E+04   -0.58404E+00   -0.43595E-01  6512   0.402E+00    0.726E-01
RMM:   2    -0.114850214013E+04   -0.48575E-01   -0.49131E-01  3881   0.112E+00    0.680E-01
RMM:   3    -0.114851307347E+04   -0.10933E-01   -0.20623E-01  4522   0.519E-01    0.224E-01
RMM:   4    -0.114851777923E+04   -0.47058E-02   -0.55239E-02  5110   0.172E-01    0.247E-01
RMM:   5    -0.114851771543E+04    0.63802E-04   -0.24174E-03  4848   0.362E-02    0.201E-01
RMM:   6    -0.114851767308E+04    0.42343E-04   -0.23383E-04  4226   0.140E-02    0.161E-01
RMM:   7    -0.114851757620E+04    0.96881E-04   -0.22406E-04  3751   0.225E-02    0.445E-02
RMM:   8    -0.114851756922E+04    0.69834E-05   -0.22210E-04  3878   0.178E-02    0.518E-02
RMM:   9    -0.114851757059E+04   -0.13750E-05   -0.72328E-05  3155   0.676E-03
     42 T=   738. E= -.11410468E+04 F= -.11485176E+04 E0= -.11484357E+04  EK= 0.30808E+02 SP= -.25E+02 SK= 0.12E+01
 bond charge predicted
 prediction of wavefunctions
       N       E                     dE             d eps       ncg     rms          rms(c)
DAV:   1    -0.114923681190E+04   -0.71924E+00   -0.41601E-01  6600   0.400E+00    0.712E-01
RMM:   2    -0.114928358064E+04   -0.46769E-01   -0.47720E-01  3857   0.112E+00    0.681E-01
RMM:   3    -0.114929418727E+04   -0.10607E-01   -0.20209E-01  4532   0.515E-01    0.216E-01
RMM:   4    -0.114929870531E+04   -0.45180E-02   -0.52612E-02  5109   0.168E-01    0.243E-01
RMM:   5    -0.114929864161E+04    0.63706E-04   -0.22953E-03  4754   0.359E-02    0.200E-01
RMM:   6    -0.114929860368E+04    0.37926E-04   -0.24184E-04  4366   0.135E-02    0.163E-01
RMM:   7    -0.114929850941E+04    0.94265E-04   -0.17813E-04  3709   0.205E-02    0.576E-02
RMM:   8    -0.114929849157E+04    0.17847E-04   -0.23856E-04  3866   0.199E-02    0.477E-02
RMM:   9    -0.114929849503E+04   -0.34598E-05   -0.78703E-05  3247   0.674E-03
     43 T=   729. E= -.11410491E+04 F= -.11492985E+04 E0= -.11492165E+04  EK= 0.30417E+02 SP= -.23E+02 SK= 0.98E+00
 bond charge predicted
 prediction of wavefunctions
       N       E                     dE             d eps       ncg     rms          rms(c)
DAV:   1    -0.115012053582E+04   -0.82204E+00   -0.40251E-01  6496   0.402E+00    0.726E-01
RMM:   2    -0.115016726360E+04   -0.46728E-01   -0.48071E-01  3830   0.114E+00    0.700E-01
RMM:   3    -0.115017719883E+04   -0.99352E-02   -0.19925E-01  4471   0.520E-01    0.205E-01
RMM:   4    -0.115018219045E+04   -0.49916E-02   -0.56690E-02  5116   0.175E-01    0.242E-01
RMM:   5    -0.115018212412E+04    0.66324E-04   -0.24630E-03  4716   0.381E-02    0.197E-01
RMM:   6    -0.115018208608E+04    0.38047E-04   -0.27096E-04  4462   0.144E-02    0.159E-01
RMM:   7    -0.115018199572E+04    0.90352E-04   -0.16338E-04  3674   0.203E-02    0.615E-02
RMM:   8    -0.115018197314E+04    0.22585E-04   -0.25334E-04  3849   0.216E-02    0.487E-02
RMM:   9    -0.115018197770E+04   -0.45660E-05   -0.84273E-05  3302   0.688E-03
     44 T=   725. E= -.11410511E+04 F= -.11501820E+04 E0= -.11501001E+04  EK= 0.30280E+02 SP= -.22E+02 SK= 0.74E+00
 bond charge predicted
 prediction of wavefunctions
       N       E                     dE             d eps       ncg     rms          rms(c)
DAV:   1    -0.115106028280E+04   -0.87831E+00   -0.37916E-01  6392   0.406E+00    0.711E-01
RMM:   2    -0.115110698817E+04   -0.46705E-01   -0.48626E-01  3795   0.117E+00    0.731E-01
RMM:   3    -0.115111651712E+04   -0.95290E-02   -0.20106E-01  4456   0.524E-01    0.195E-01
RMM:   4    -0.115112163640E+04   -0.51193E-02   -0.56887E-02  5140   0.173E-01    0.244E-01
RMM:   5    -0.115112156346E+04    0.72937E-04   -0.24361E-03  4708   0.383E-02    0.200E-01
RMM:   6    -0.115112151788E+04    0.45578E-04   -0.27406E-04  4489   0.147E-02    0.160E-01
RMM:   7    -0.115112141910E+04    0.98783E-04   -0.16562E-04  3649   0.210E-02    0.673E-02
RMM:   8    -0.115112139109E+04    0.28016E-04   -0.28734E-04  3852   0.237E-02    0.463E-02
RMM:   9    -0.115112139748E+04   -0.63931E-05   -0.94629E-05  3319   0.706E-03
     45 T=   727. E= -.11410532E+04 F= -.11511214E+04 E0= -.11510396E+04  EK= 0.30343E+02 SP= -.21E+02 SK= 0.53E+00
 bond charge predicted
 prediction of wavefunctions
       N       E                     dE             d eps       ncg     rms          rms(c)
DAV:   1    -0.115200537686E+04   -0.88399E+00   -0.35901E-01  6336   0.408E+00    0.714E-01
RMM:   2    -0.115205161938E+04   -0.46243E-01   -0.48395E-01  3765   0.118E+00    0.751E-01
RMM:   3    -0.115206063052E+04   -0.90111E-02   -0.19972E-01  4434   0.527E-01    0.186E-01
RMM:   4    -0.115206584385E+04   -0.52133E-02   -0.57483E-02  5141   0.174E-01    0.240E-01
RMM:   5    -0.115206576726E+04    0.76595E-04   -0.24460E-03  4725   0.389E-02    0.196E-01
RMM:   6    -0.115206571910E+04    0.48160E-04   -0.27038E-04  4473   0.148E-02    0.157E-01
RMM:   7    -0.115206561501E+04    0.10408E-03   -0.18216E-04  3646   0.224E-02    0.628E-02
RMM:   8    -0.115206558948E+04    0.25529E-04   -0.29306E-04  3858   0.238E-02    0.461E-02
RMM:   9    -0.115206559579E+04   -0.63089E-05   -0.93558E-05  3309   0.708E-03
     46 T=   732. E= -.11410513E+04 F= -.11520656E+04 E0= -.11519839E+04  EK= 0.30554E+02 SP= -.20E+02 SK= 0.36E+00
 bond charge predicted
 prediction of wavefunctions
       N       E                     dE             d eps       ncg     rms          rms(c)
DAV:   1    -0.115291002691E+04   -0.84444E+00   -0.33654E-01  6448   0.409E+00    0.690E-01
RMM:   2    -0.115295534276E+04   -0.45316E-01   -0.47424E-01  3768   0.117E+00    0.749E-01
RMM:   3    -0.115296452438E+04   -0.91816E-02   -0.20005E-01  4491   0.520E-01    0.183E-01
RMM:   4    -0.115296920868E+04   -0.46843E-02   -0.52067E-02  5141   0.163E-01    0.233E-01
RMM:   5    -0.115296913638E+04    0.72300E-04   -0.22549E-03  4650   0.374E-02    0.190E-01
RMM:   6    -0.115296908549E+04    0.50887E-04   -0.26734E-04  4406   0.151E-02    0.151E-01
RMM:   7    -0.115296898059E+04    0.10491E-03   -0.19686E-04  3650   0.232E-02    0.563E-02
RMM:   8    -0.115296895962E+04    0.20963E-04   -0.27217E-04  3864   0.225E-02    0.430E-02
RMM:   9    -0.115296896536E+04   -0.57347E-05   -0.86793E-05  3284   0.688E-03
     47 T=   739. E= -.11410499E+04 F= -.11529690E+04 E0= -.11528872E+04  EK= 0.30857E+02 SP= -.19E+02 SK= 0.23E+00
 bond charge predicted
 prediction of wavefunctions
       N       E                     dE             d eps       ncg     rms          rms(c)
DAV:   1    -0.115372687543E+04   -0.75792E+00   -0.31756E-01  6440   0.409E+00    0.685E-01
RMM:   2    -0.115377190359E+04   -0.45028E-01   -0.46822E-01  3788   0.115E+00    0.733E-01
RMM:   3    -0.115378097495E+04   -0.90714E-02   -0.19563E-01  4487   0.515E-01    0.189E-01
RMM:   4    -0.115378567267E+04   -0.46977E-02   -0.52151E-02  5140   0.164E-01    0.236E-01
RMM:   5    -0.115378560584E+04    0.66823E-04   -0.22272E-03  4677   0.367E-02    0.194E-01
RMM:   6    -0.115378555812E+04    0.47724E-04   -0.25700E-04  4455   0.143E-02    0.156E-01
RMM:   7    -0.115378544788E+04    0.11024E-03   -0.20643E-04  3666   0.239E-02    0.556E-02
RMM:   8    -0.115378542773E+04    0.20146E-04   -0.26209E-04  3853   0.218E-02    0.429E-02
RMM:   9    -0.115378543312E+04   -0.53871E-05   -0.82751E-05  3274   0.675E-03
     48 T=   747. E= -.11410524E+04 F= -.11537854E+04 E0= -.11537034E+04  EK= 0.31199E+02 SP= -.19E+02 SK= 0.13E+00
 bond charge predicted
 prediction of wavefunctions
       N       E                     dE             d eps       ncg     rms          rms(c)
DAV:   1    -0.115442215044E+04   -0.63672E+00   -0.32449E-01  6632   0.410E+00    0.692E-01
RMM:   2    -0.115446672476E+04   -0.44574E-01   -0.46096E-01  3810   0.112E+00    0.710E-01
RMM:   3    -0.115447631063E+04   -0.95859E-02   -0.19580E-01  4505   0.513E-01    0.197E-01
RMM:   4    -0.115448081879E+04   -0.45082E-02   -0.50812E-02  5140   0.164E-01    0.233E-01
RMM:   5    -0.115448074928E+04    0.69506E-04   -0.20878E-03  4663   0.359E-02    0.191E-01
RMM:   6    -0.115448070282E+04    0.46462E-04   -0.24801E-04  4474   0.143E-02    0.151E-01
RMM:   7    -0.115448060159E+04    0.10123E-03   -0.20407E-04  3672   0.235E-02    0.487E-02
RMM:   8    -0.115448058838E+04    0.13214E-04   -0.23361E-04  3884   0.196E-02    0.422E-02
RMM:   9    -0.115448059163E+04   -0.32511E-05   -0.68837E-05  3196   0.636E-03
     49 T=   756. E= -.11410532E+04 F= -.11544806E+04 E0= -.11543979E+04  EK= 0.31546E+02 SP= -.18E+02 SK= 0.62E-01
 bond charge predicted
 prediction of wavefunctions
       N       E                     dE             d eps       ncg     rms          rms(c)
DAV:   1    -0.115497096006E+04   -0.49037E+00   -0.33278E-01  6768   0.412E+00    0.683E-01
RMM:   2    -0.115501591336E+04   -0.44953E-01   -0.46038E-01  3847   0.110E+00    0.680E-01
RMM:   3    -0.115502630027E+04   -0.10387E-01   -0.19754E-01  4545   0.506E-01    0.214E-01
RMM:   4    -0.115503044287E+04   -0.41426E-02   -0.47879E-02  5129   0.160E-01    0.239E-01
RMM:   5    -0.115503038057E+04    0.62302E-04   -0.19775E-03  4724   0.340E-02    0.199E-01
RMM:   6    -0.115503033446E+04    0.46112E-04   -0.22115E-04  4395   0.133E-02    0.160E-01
RMM:   7    -0.115503022098E+04    0.11348E-03   -0.25429E-04  3725   0.257E-02    0.413E-02
RMM:   8    -0.115503021421E+04    0.67690E-05   -0.22493E-04  3899   0.178E-02    0.443E-02
RMM:   9    -0.115503021565E+04   -0.14408E-05   -0.63164E-05  3140   0.627E-03
     50 T=   763. E= -.11410507E+04 F= -.11550302E+04 E0= -.11549465E+04  EK= 0.31871E+02 SP= -.18E+02 SK= 0.21E-01
 bond charge predicted
 prediction of wavefunctions
       N       E                     dE             d eps       ncg     rms          rms(c)
DAV:   1    -0.115536319000E+04   -0.33298E+00   -0.34243E-01  6864   0.415E+00    0.696E-01
RMM:   2    -0.115540916882E+04   -0.45979E-01   -0.46740E-01  3897   0.107E+00    0.653E-01
RMM:   3    -0.115541991132E+04   -0.10742E-01   -0.19662E-01  4553   0.502E-01    0.229E-01
RMM:   4    -0.115542386423E+04   -0.39529E-02   -0.47152E-02  4977   0.162E-01    0.239E-01
RMM:   5    -0.115542384517E+04    0.19066E-04   -0.23084E-03  4922   0.367E-02    0.198E-01
RMM:   6    -0.115542380164E+04    0.43527E-04   -0.20449E-04  4318   0.126E-02    0.159E-01
RMM:   7    -0.115542369769E+04    0.10394E-03   -0.23557E-04  3747   0.242E-02    0.405E-02
RMM:   8    -0.115542369202E+04    0.56692E-05   -0.20801E-04  3891   0.168E-02    0.447E-02
RMM:   9    -0.115542369302E+04   -0.10002E-05   -0.59572E-05  3130   0.618E-03
     51 T=   770. E= -.11410497E+04 F= -.11554237E+04 E0= -.11553387E+04  EK= 0.32156E+02 SP= -.18E+02 SK= 0.20E-02
 bond charge predicted
 prediction of wavefunctions
       N       E                     dE             d eps       ncg     rms          rms(c)
DAV:   1    -0.115559976410E+04   -0.17607E+00   -0.33341E-01  6832   0.418E+00    0.708E-01
RMM:   2    -0.115564605281E+04   -0.46289E-01   -0.46789E-01  3940   0.105E+00    0.627E-01
RMM:   3    -0.115565648677E+04   -0.10434E-01   -0.18930E-01  4503   0.498E-01    0.234E-01
RMM:   4    -0.115566051369E+04   -0.40269E-02   -0.48841E-02  4832   0.169E-01    0.235E-01
RMM:   5    -0.115566054297E+04   -0.29281E-04   -0.27715E-03  5014   0.399E-02    0.193E-01
RMM:   6    -0.115566050663E+04    0.36341E-04   -0.21534E-04  4356   0.126E-02    0.155E-01
RMM:   7    -0.115566041652E+04    0.90108E-04   -0.20280E-04  3753   0.219E-02    0.413E-02
RMM:   8    -0.115566041080E+04    0.57216E-05   -0.18541E-04  3880   0.159E-02    0.427E-02
RMM:   9    -0.115566041233E+04   -0.15254E-05   -0.57012E-05  3129   0.616E-03
     52 T=   776. E= -.11410518E+04 F= -.11556604E+04 E0= -.11555739E+04  EK= 0.32393E+02 SP= -.18E+02 SK= 0.25E-02
 bond charge predicted
 prediction of wavefunctions
       N       E                     dE             d eps       ncg     rms          rms(c)
DAV:   1    -0.115568841040E+04   -0.28000E-01   -0.33279E-01  6824   0.422E+00    0.716E-01
RMM:   2    -0.115573438337E+04   -0.45973E-01   -0.46332E-01  3950   0.103E+00    0.617E-01
RMM:   3    -0.115574453199E+04   -0.10149E-01   -0.18492E-01  4458   0.499E-01    0.234E-01
RMM:   4    -0.115574874498E+04   -0.42130E-02   -0.51127E-02  4804   0.175E-01    0.234E-01
RMM:   5    -0.115574878390E+04   -0.38913E-04   -0.29287E-03  5032   0.409E-02    0.191E-01
RMM:   6    -0.115574875061E+04    0.33291E-04   -0.22041E-04  4355   0.127E-02    0.154E-01
RMM:   7    -0.115574866703E+04    0.83575E-04   -0.17733E-04  3743   0.202E-02    0.446E-02
RMM:   8    -0.115574865964E+04    0.73924E-05   -0.18256E-04  3882   0.160E-02    0.426E-02
RMM:   9    -0.115574866159E+04   -0.19565E-05   -0.58407E-05  3158   0.623E-03
     53 T=   781. E= -.11410502E+04 F= -.11557487E+04 E0= -.11556605E+04  EK= 0.32595E+02 SP= -.18E+02 SK= 0.20E-01
 bond charge predicted
 prediction of wavefunctions
       N       E                     dE             d eps       ncg     rms          rms(c)
DAV:   1    -0.115566235186E+04    0.86308E-01   -0.33167E-01  6728   0.426E+00    0.712E-01
RMM:   2    -0.115570815913E+04   -0.45807E-01   -0.46177E-01  3953   0.103E+00    0.618E-01
RMM:   3    -0.115571849213E+04   -0.10333E-01   -0.18675E-01  4477   0.502E-01    0.234E-01
RMM:   4    -0.115572274047E+04   -0.42483E-02   -0.51409E-02  4831   0.174E-01    0.239E-01
RMM:   5    -0.115572277346E+04   -0.32984E-04   -0.28839E-03  5015   0.399E-02    0.194E-01
RMM:   6    -0.115572274015E+04    0.33309E-04   -0.21859E-04  4293   0.127E-02    0.158E-01
RMM:   7    -0.115572265050E+04    0.89646E-04   -0.19770E-04  3772   0.211E-02    0.415E-02
RMM:   8    -0.115572264534E+04    0.51602E-05   -0.19076E-04  3898   0.160E-02    0.460E-02
RMM:   9    -0.115572264686E+04   -0.15168E-05   -0.58906E-05  3110   0.637E-03
     54 T=   785. E= -.11410469E+04 F= -.11557226E+04 E0= -.11556329E+04  EK= 0.32790E+02 SP= -.18E+02 SK= 0.52E-01
 bond charge predicted
 prediction of wavefunctions
       N       E                     dE             d eps       ncg     rms          rms(c)
DAV:   1    -0.115556199408E+04    0.16065E+00   -0.35946E-01  6640   0.429E+00    0.740E-01
RMM:   2    -0.115560899124E+04   -0.46997E-01   -0.47469E-01  3928   0.106E+00    0.631E-01
RMM:   3    -0.115561965491E+04   -0.10664E-01   -0.19358E-01  4438   0.517E-01    0.242E-01
RMM:   4    -0.115562438429E+04   -0.47294E-02   -0.56925E-02  4841   0.185E-01    0.248E-01
RMM:   5    -0.115562441368E+04   -0.29385E-04   -0.30947E-03  5026   0.413E-02    0.200E-01
RMM:   6    -0.115562437922E+04    0.34460E-04   -0.23447E-04  4324   0.133E-02    0.162E-01
RMM:   7    -0.115562428718E+04    0.92032E-04   -0.20857E-04  3757   0.217E-02    0.408E-02
RMM:   8    -0.115562428422E+04    0.29637E-05   -0.20405E-04  3916   0.162E-02    0.490E-02
RMM:   9    -0.115562428528E+04   -0.10624E-05   -0.61060E-05  3123   0.670E-03
     55 T=   791. E= -.11410414E+04 F= -.11556243E+04 E0= -.11555333E+04  EK= 0.33019E+02 SP= -.19E+02 SK= 0.96E-01
 bond charge predicted
 prediction of wavefunctions
       N       E                     dE             d eps       ncg     rms          rms(c)
DAV:   1    -0.115544938673E+04    0.17490E+00   -0.39092E-01  6528   0.431E+00    0.759E-01
RMM:   2    -0.115549847420E+04   -0.49087E-01   -0.49673E-01  3906   0.109E+00    0.645E-01
RMM:   3    -0.115550986064E+04   -0.11386E-01   -0.20453E-01  4436   0.530E-01    0.254E-01
RMM:   4    -0.115551471847E+04   -0.48578E-02   -0.58770E-02  4857   0.189E-01    0.259E-01
RMM:   5    -0.115551474800E+04   -0.29530E-04   -0.31662E-03  5042   0.416E-02    0.210E-01
RMM:   6    -0.115551471443E+04    0.33572E-04   -0.23732E-04  4371   0.130E-02    0.173E-01
RMM:   7    -0.115551461150E+04    0.10292E-03   -0.22836E-04  3754   0.230E-02    0.421E-02
RMM:   8    -0.115551460855E+04    0.29524E-05   -0.22278E-04  3927   0.169E-02    0.524E-02
RMM:   9    -0.115551460932E+04   -0.76603E-06   -0.63844E-05  3112   0.686E-03
     56 T=   798. E= -.11410371E+04 F= -.11555146E+04 E0= -.11554226E+04  EK= 0.33335E+02 SP= -.19E+02 SK= 0.15E+00
 bond charge predicted
 prediction of wavefunctions
       N       E                     dE             d eps       ncg     rms          rms(c)
DAV:   1    -0.115539592396E+04    0.11868E+00   -0.41751E-01  6376   0.431E+00    0.793E-01
RMM:   2    -0.115544818687E+04   -0.52263E-01   -0.52992E-01  3901   0.113E+00    0.663E-01
RMM:   3    -0.115546010100E+04   -0.11914E-01   -0.21481E-01  4429   0.544E-01    0.265E-01
RMM:   4    -0.115546534358E+04   -0.52426E-02   -0.63557E-02  4859   0.197E-01    0.267E-01
RMM:   5    -0.115546538154E+04   -0.37968E-04   -0.34805E-03  5056   0.434E-02    0.215E-01
RMM:   6    -0.115546534658E+04    0.34964E-04   -0.26334E-04  4425   0.137E-02    0.175E-01
RMM:   7    -0.115546524435E+04    0.10223E-03   -0.21801E-04  3740   0.227E-02    0.451E-02
RMM:   8    -0.115546523997E+04    0.43868E-05   -0.22701E-04  3925   0.172E-02    0.528E-02
RMM:   9    -0.115546524080E+04   -0.83554E-06   -0.66443E-05  3145   0.704E-03
     57 T=   810. E= -.11410314E+04 F= -.11554652E+04 E0= -.11553727E+04  EK= 0.33809E+02 SP= -.20E+02 SK= 0.21E+00
 bond charge predicted
 prediction of wavefunctions
       N       E                     dE             d eps       ncg     rms          rms(c)
DAV:   1    -0.115546907193E+04   -0.38320E-02   -0.42473E-01  6328   0.432E+00    0.793E-01
RMM:   2    -0.115552274685E+04   -0.53675E-01   -0.54550E-01  3883   0.115E+00    0.678E-01
RMM:   3    -0.115553540887E+04   -0.12662E-01   -0.22536E-01  4470   0.550E-01    0.272E-01
RMM:   4    -0.115554060366E+04   -0.51948E-02   -0.62752E-02  4909   0.193E-01    0.274E-01
RMM:   5    -0.115554062707E+04   -0.23403E-04   -0.33326E-03  5063   0.420E-02    0.222E-01
RMM:   6    -0.115554058918E+04    0.37890E-04   -0.25645E-04  4375   0.134E-02    0.182E-01
RMM:   7    -0.115554047458E+04    0.11460E-03   -0.25519E-04  3751   0.248E-02    0.421E-02
RMM:   8    -0.115554047233E+04    0.22520E-05   -0.24000E-04  3928   0.174E-02    0.554E-02
RMM:   9    -0.115554047287E+04   -0.54407E-06   -0.68860E-05  3137   0.704E-03
     58 T=   826. E= -.11410317E+04 F= -.11555405E+04 E0= -.11554478E+04  EK= 0.34493E+02 SP= -.20E+02 SK= 0.27E+00
 bond charge predicted
 prediction of wavefunctions
       N       E                     dE             d eps       ncg     rms          rms(c)
DAV:   1    -0.115569235822E+04   -0.15189E+00   -0.40913E-01  6136   0.434E+00    0.802E-01
RMM:   2    -0.115574648793E+04   -0.54130E-01   -0.55250E-01  3862   0.119E+00    0.708E-01
RMM:   3    -0.115575887828E+04   -0.12390E-01   -0.22897E-01  4465   0.559E-01    0.257E-01
RMM:   4    -0.115576449920E+04   -0.56209E-02   -0.66055E-02  5020   0.195E-01    0.269E-01
RMM:   5    -0.115576447873E+04    0.20466E-04   -0.31030E-03  5044   0.408E-02    0.218E-01
RMM:   6    -0.115576443709E+04    0.41638E-04   -0.25281E-04  4344   0.135E-02    0.177E-01
RMM:   7    -0.115576431959E+04    0.11750E-03   -0.26639E-04  3716   0.257E-02    0.418E-02
RMM:   8    -0.115576431835E+04    0.12425E-05   -0.26145E-04  3940   0.181E-02    0.554E-02
RMM:   9    -0.115576431882E+04   -0.46699E-06   -0.71670E-05  3157   0.697E-03
     59 T=   848. E= -.11410322E+04 F= -.11557643E+04 E0= -.11556720E+04  EK= 0.35408E+02 SP= -.21E+02 SK= 0.32E+00
 bond charge predicted
 prediction of wavefunctions
       N       E                     dE             d eps       ncg     rms          rms(c)
DAV:   1    -0.115606437992E+04   -0.30006E+00   -0.42399E-01  6080   0.440E+00    0.808E-01
RMM:   2    -0.115612044784E+04   -0.56068E-01   -0.57689E-01  3827   0.124E+00    0.748E-01
RMM:   3    -0.115613334487E+04   -0.12897E-01   -0.24361E-01  4476   0.573E-01    0.257E-01
RMM:   4    -0.115613919902E+04   -0.58542E-02   -0.67564E-02  5121   0.195E-01    0.280E-01
RMM:   5    -0.115613913408E+04    0.64941E-04   -0.28501E-03  4960   0.398E-02    0.229E-01
RMM:   6    -0.115613908027E+04    0.53810E-04   -0.25928E-04  4364   0.142E-02    0.183E-01
RMM:   7    -0.115613894303E+04    0.13724E-03   -0.32306E-04  3687   0.292E-02    0.406E-02
RMM:   8    -0.115613894439E+04   -0.13634E-05   -0.30505E-04  3948   0.192E-02    0.594E-02
RMM:   9    -0.115613894332E+04    0.10705E-05   -0.77456E-05  3192   0.746E-03
     60 T=   875. E= -.11410363E+04 F= -.11561389E+04 E0= -.11560473E+04  EK= 0.36540E+02 SP= -.22E+02 SK= 0.36E+00
 bond charge predicted
 prediction of wavefunctions
       N       E                     dE             d eps       ncg     rms          rms(c)
DAV:   1    -0.115652834247E+04   -0.38940E+00   -0.42568E-01  5992   0.452E+00    0.803E-01
RMM:   2    -0.115658668942E+04   -0.58347E-01   -0.60495E-01  3777   0.131E+00    0.801E-01
RMM:   3    -0.115660000430E+04   -0.13315E-01   -0.25916E-01  4488   0.590E-01    0.254E-01
RMM:   4    -0.115660598087E+04   -0.59766E-02   -0.67714E-02  5141   0.193E-01    0.291E-01
RMM:   5    -0.115660589036E+04    0.90511E-04   -0.27829E-03  4829   0.405E-02    0.241E-01
RMM:   6    -0.115660582278E+04    0.67572E-04   -0.28693E-04  4455   0.152E-02    0.194E-01
RMM:   7    -0.115660565183E+04    0.17096E-03   -0.39728E-04  3690   0.332E-02    0.454E-02
RMM:   8    -0.115660565010E+04    0.17294E-05   -0.35766E-04  3971   0.212E-02    0.565E-02
RMM:   9    -0.115660565029E+04   -0.19482E-06   -0.89645E-05  3203   0.773E-03
     61 T=   906. E= -.11410414E+04 F= -.11566057E+04 E0= -.11565150E+04  EK= 0.37811E+02 SP= -.23E+02 SK= 0.36E+00
 bond charge predicted
 prediction of wavefunctions
       N       E                     dE             d eps       ncg     rms          rms(c)
DAV:   1    -0.115698935254E+04   -0.38370E+00   -0.47106E-01  5968   0.464E+00    0.843E-01
RMM:   2    -0.115705322336E+04   -0.63871E-01   -0.66694E-01  3770   0.139E+00    0.850E-01
RMM:   3    -0.115706677843E+04   -0.13555E-01   -0.27639E-01  4454   0.614E-01    0.264E-01
RMM:   4    -0.115707343338E+04   -0.66550E-02   -0.74873E-02  5140   0.204E-01    0.306E-01
RMM:   5    -0.115707331874E+04    0.11464E-03   -0.30663E-03  4796   0.439E-02    0.254E-01
RMM:   6    -0.115707323966E+04    0.79083E-04   -0.32890E-04  4530   0.164E-02    0.204E-01
RMM:   7    -0.115707304799E+04    0.19167E-03   -0.42662E-04  3712   0.347E-02    0.533E-02
RMM:   8    -0.115707304166E+04    0.63292E-05   -0.42088E-04  3985   0.237E-02    0.589E-02
RMM:   9    -0.115707304213E+04   -0.46770E-06   -0.10240E-04  3216   0.806E-03    0.386E-02
RMM:  10    -0.115707303381E+04    0.83166E-05   -0.39803E-05  2748   0.965E-03
     62 T=   937. E= -.11410493E+04 F= -.11570730E+04 E0= -.11569835E+04  EK= 0.39101E+02 SP= -.23E+02 SK= 0.34E+00
 bond charge predicted
 prediction of wavefunctions
       N       E                     dE             d eps       ncg     rms          rms(c)
DAV:   1    -0.115734716380E+04   -0.27412E+00   -0.50529E-01  5944   0.474E+00    0.870E-01
RMM:   2    -0.115741424125E+04   -0.67077E-01   -0.70010E-01  3783   0.142E+00    0.865E-01
RMM:   3    -0.115742839170E+04   -0.14150E-01   -0.28908E-01  4448   0.629E-01    0.279E-01
RMM:   4    -0.115743538643E+04   -0.69947E-02   -0.79084E-02  5136   0.211E-01    0.319E-01
RMM:   5    -0.115743527069E+04    0.11574E-03   -0.32571E-03  4848   0.450E-02    0.267E-01
RMM:   6    -0.115743519983E+04    0.70861E-04   -0.33422E-04  4608   0.155E-02    0.221E-01
RMM:   7    -0.115743499366E+04    0.20618E-03   -0.41387E-04  3697   0.343E-02    0.654E-02
RMM:   8    -0.115743497731E+04    0.16350E-04   -0.45802E-04  3992   0.252E-02    0.564E-02
RMM:   9    -0.115743498038E+04   -0.30778E-05   -0.10997E-04  3228   0.803E-03    0.398E-02
RMM:  10    -0.115743497236E+04    0.80190E-05   -0.25981E-05  2152   0.803E-03
     63 T=   965. E= -.11410552E+04 F= -.11574350E+04 E0= -.11573467E+04  EK= 0.40272E+02 SP= -.24E+02 SK= 0.30E+00
 bond charge predicted
 prediction of wavefunctions
       N       E                     dE             d eps       ncg     rms          rms(c)
DAV:   1    -0.115752194254E+04   -0.86962E-01   -0.52398E-01  5952   0.482E+00    0.880E-01
RMM:   2    -0.115759071397E+04   -0.68771E-01   -0.71553E-01  3780   0.144E+00    0.882E-01
RMM:   3    -0.115760537341E+04   -0.14659E-01   -0.29933E-01  4437   0.640E-01    0.287E-01
RMM:   4    -0.115761273071E+04   -0.73573E-02   -0.83176E-02  5134   0.217E-01    0.331E-01
RMM:   5    -0.115761259301E+04    0.13771E-03   -0.33299E-03  4813   0.462E-02    0.276E-01
RMM:   6    -0.115761251076E+04    0.82246E-04   -0.35599E-04  4630   0.164E-02    0.227E-01
RMM:   7    -0.115761228437E+04    0.22639E-03   -0.46232E-04  3711   0.361E-02    0.646E-02
RMM:   8    -0.115761227058E+04    0.13791E-04   -0.52338E-04  3987   0.267E-02    0.651E-02
RMM:   9    -0.115761227219E+04   -0.16142E-05   -0.12125E-04  3284   0.862E-03    0.443E-02
RMM:  10    -0.115761226205E+04    0.10139E-04   -0.32086E-05  2389   0.844E-03    0.773E-03
RMM:  11    -0.115761226289E+04   -0.83490E-06   -0.20420E-05  2209   0.494E-03
     64 T=   987. E= -.11410589E+04 F= -.11576123E+04 E0= -.11575253E+04  EK= 0.41207E+02 SP= -.25E+02 SK= 0.23E+00
 bond charge predicted
 prediction of wavefunctions
       N       E                     dE             d eps       ncg     rms          rms(c)
DAV:   1    -0.115746470879E+04    0.14755E+00   -0.52357E-01  5960   0.483E+00    0.936E-01
RMM:   2    -0.115753251742E+04   -0.67809E-01   -0.70112E-01  3799   0.141E+00    0.870E-01
RMM:   3    -0.115754708416E+04   -0.14567E-01   -0.29601E-01  4378   0.652E-01    0.271E-01
RMM:   4    -0.115755532145E+04   -0.82373E-02   -0.93289E-02  5057   0.235E-01    0.311E-01
RMM:   5    -0.115755522088E+04    0.10057E-03   -0.40170E-03  4875   0.521E-02    0.252E-01
RMM:   6    -0.115755516157E+04    0.59309E-04   -0.38282E-04  4663   0.167E-02    0.202E-01
RMM:   7    -0.115755501270E+04    0.14887E-03   -0.29628E-04  3680   0.286E-02    0.664E-02
RMM:   8    -0.115755499434E+04    0.18361E-04   -0.41635E-04  3970   0.255E-02    0.642E-02
RMM:   9    -0.115755499642E+04   -0.20815E-05   -0.10126E-04  3247   0.758E-03    0.469E-02
RMM:  10    -0.115755498725E+04    0.91727E-05   -0.22671E-05  2132   0.757E-03
     65 T=  1002. E= -.11410587E+04 F= -.11575550E+04 E0= -.11574692E+04  EK= 0.41825E+02 SP= -.25E+02 SK= 0.17E+00
 bond charge predicted
 prediction of wavefunctions
       N       E                     dE             d eps       ncg     rms          rms(c)
DAV:   1    -0.115716431014E+04    0.39069E+00   -0.55545E-01  6008   0.482E+00    0.854E-01
RMM:   2    -0.115723340380E+04   -0.69094E-01   -0.69950E-01  3883   0.135E+00    0.802E-01
RMM:   3    -0.115725000438E+04   -0.16601E-01   -0.29995E-01  4544   0.622E-01    0.328E-01
RMM:   4    -0.115725607949E+04   -0.60751E-02   -0.73193E-02  4988   0.206E-01    0.340E-01
RMM:   5    -0.115725602388E+04    0.55606E-04   -0.34657E-03  5030   0.454E-02    0.290E-01
RMM:   6    -0.115725595406E+04    0.69819E-04   -0.27513E-04  4443   0.136E-02    0.245E-01
RMM:   7    -0.115725572495E+04    0.22911E-03   -0.48021E-04  3738   0.354E-02    0.628E-02
RMM:   8    -0.115725571721E+04    0.77382E-05   -0.52655E-04  3973   0.252E-02    0.741E-02
RMM:   9    -0.115725571756E+04   -0.34391E-06   -0.12233E-04  3315   0.913E-03    0.518E-02
RMM:  10    -0.115725570597E+04    0.11591E-04   -0.28387E-05  2206   0.837E-03    0.150E-02
RMM:  11    -0.115725570547E+04    0.49650E-06   -0.19935E-05  2171   0.477E-03
     66 T=  1008. E= -.11410578E+04 F= -.11572557E+04 E0= -.11571711E+04  EK= 0.42089E+02 SP= -.26E+02 SK= 0.11E+00
 bond charge predicted
 prediction of wavefunctions
       N       E                     dE             d eps       ncg     rms          rms(c)
DAV:   1    -0.115665356636E+04    0.60214E+00   -0.61719E-01  6232   0.480E+00    0.951E-01
RMM:   2    -0.115672378832E+04   -0.70222E-01   -0.70429E-01  3920   0.131E+00    0.775E-01
RMM:   3    -0.115673911316E+04   -0.15325E-01   -0.28289E-01  4345   0.635E-01    0.311E-01
RMM:   4    -0.115674691285E+04   -0.77997E-02   -0.94745E-02  4842   0.248E-01    0.309E-01
RMM:   5    -0.115674694771E+04   -0.34864E-04   -0.49920E-03  5072   0.545E-02    0.250E-01
RMM:   6    -0.115674691134E+04    0.36376E-04   -0.36524E-04  4636   0.150E-02    0.206E-01
RMM:   7    -0.115674679225E+04    0.11909E-03   -0.22376E-04  3670   0.238E-02    0.705E-02
RMM:   8    -0.115674677478E+04    0.17463E-04   -0.34915E-04  4010   0.226E-02    0.654E-02
RMM:   9    -0.115674677643E+04   -0.16413E-05   -0.90376E-05  3219   0.734E-03
     67 T=  1006. E= -.11410520E+04 F= -.11567468E+04 E0= -.11566631E+04  EK= 0.42022E+02 SP= -.26E+02 SK= 0.59E-01
 bond charge predicted
 prediction of wavefunctions
       N       E                     dE             d eps       ncg     rms          rms(c)
DAV:   1    -0.115601501686E+04    0.73176E+00   -0.68514E-01  6232   0.479E+00    0.969E-01
RMM:   2    -0.115608824795E+04   -0.73231E-01   -0.73296E-01  3943   0.131E+00    0.765E-01
RMM:   3    -0.115610360624E+04   -0.15358E-01   -0.28216E-01  4309   0.637E-01    0.330E-01
RMM:   4    -0.115611168859E+04   -0.80823E-02   -0.99765E-02  4847   0.258E-01    0.318E-01
RMM:   5    -0.115611172702E+04   -0.38426E-04   -0.52891E-03  5082   0.546E-02    0.252E-01
RMM:   6    -0.115611168309E+04    0.43929E-04   -0.39174E-04  4609   0.162E-02    0.205E-01
RMM:   7    -0.115611155747E+04    0.12562E-03   -0.25730E-04  3712   0.250E-02    0.590E-02
RMM:   8    -0.115611155079E+04    0.66779E-05   -0.35150E-04  3989   0.215E-02    0.720E-02
RMM:   9    -0.115611154977E+04    0.10217E-05   -0.89054E-05  3209   0.785E-03
     68 T=   999. E= -.11410502E+04 F= -.11561115E+04 E0= -.11560286E+04  EK= 0.41697E+02 SP= -.27E+02 SK= 0.26E-01
 bond charge predicted
 prediction of wavefunctions
       N       E                     dE             d eps       ncg     rms          rms(c)
DAV:   1    -0.115533486544E+04    0.77669E+00   -0.71640E-01  6184   0.478E+00    0.952E-01
RMM:   2    -0.115540810413E+04   -0.73239E-01   -0.73276E-01  3899   0.133E+00    0.787E-01
RMM:   3    -0.115542438308E+04   -0.16279E-01   -0.29653E-01  4358   0.647E-01    0.328E-01
RMM:   4    -0.115543242943E+04   -0.80464E-02   -0.97649E-02  4864   0.250E-01    0.332E-01
RMM:   5    -0.115543245179E+04   -0.22358E-04   -0.50004E-03  5083   0.518E-02    0.272E-01
RMM:   6    -0.115543241465E+04    0.37146E-04   -0.35924E-04  4603   0.145E-02    0.231E-01
RMM:   7    -0.115543226076E+04    0.15389E-03   -0.28627E-04  3717   0.266E-02    0.661E-02
RMM:   8    -0.115543225158E+04    0.91747E-05   -0.40092E-04  4034   0.227E-02    0.733E-02
RMM:   9    -0.115543225221E+04   -0.62560E-06   -0.99787E-05  3225   0.822E-03
[...]
RMM:   7    -0.115279987125E+04    0.16001E-03   -0.28870E-04  3672   0.277E-02    0.798E-02
RMM:   8    -0.115279984254E+04    0.28711E-04   -0.48750E-04  4032   0.275E-02    0.644E-02
RMM:   9    -0.115279984627E+04   -0.37304E-05   -0.11443E-04  3268   0.823E-03    0.504E-02
RMM:  10    -0.115279983641E+04    0.98608E-05   -0.19238E-05  2141   0.707E-03
   2484 T=   954. E= -.11392835E+04 F= -.11527998E+04 E0= -.11527006E+04  EK= 0.39824E+02 SP= -.26E+02 SK= 0.74E-01
 bond charge predicted
 prediction of wavefunctions
       N       E                     dE             d eps       ncg     rms          rms(c)
DAV:   1    -0.115251026554E+04    0.28958E+00   -0.50301E-01  6080   0.493E+00    0.858E-01
RMM:   2    -0.115257486630E+04   -0.64601E-01   -0.66057E-01  3871   0.129E+00    0.805E-01
RMM:   3    -0.115259016136E+04   -0.15295E-01   -0.28310E-01  4445   0.620E-01    0.303E-01
RMM:   4    -0.115259653179E+04   -0.63704E-02   -0.77074E-02  4990   0.217E-01    0.320E-01
RMM:   5    -0.115259646938E+04    0.62409E-04   -0.36354E-03  4961   0.473E-02    0.265E-01
RMM:   6    -0.115259640676E+04    0.62621E-04   -0.30533E-04  4496   0.153E-02    0.220E-01
RMM:   7    -0.115259625851E+04    0.14824E-03   -0.24979E-04  3686   0.248E-02    0.920E-02
RMM:   8    -0.115259622445E+04    0.34060E-04   -0.51249E-04  4079   0.278E-02    0.663E-02
RMM:   9    -0.115259623027E+04   -0.58203E-05   -0.13113E-04  3326   0.913E-03    0.618E-02
RMM:  10    -0.115259621815E+04    0.12119E-04   -0.15868E-05  2131   0.596E-03    0.357E-02
RMM:  11    -0.115259621355E+04    0.46077E-05   -0.39925E-05  2574   0.601E-03
   2485 T=   939. E= -.11392804E+04 F= -.11525962E+04 E0= -.11524969E+04  EK= 0.39205E+02 SP= -.26E+02 SK= 0.96E-01
 bond charge predicted
 prediction of wavefunctions
       N       E                     dE             d eps       ncg     rms          rms(c)
DAV:   1    -0.115210441978E+04    0.49180E+00   -0.50633E-01  6232   0.482E+00    0.875E-01
RMM:   2    -0.115216734843E+04   -0.62929E-01   -0.63971E-01  3876   0.125E+00    0.772E-01
RMM:   3    -0.115218218514E+04   -0.14837E-01   -0.27020E-01  4379   0.617E-01    0.304E-01
RMM:   4    -0.115218892179E+04   -0.67366E-02   -0.82398E-02  4900   0.229E-01    0.310E-01
RMM:   5    -0.115218891685E+04    0.49396E-05   -0.41835E-03  5055   0.494E-02    0.255E-01
RMM:   6    -0.115218887537E+04    0.41482E-04   -0.30389E-04  4500   0.142E-02    0.217E-01
RMM:   7    -0.115218874712E+04    0.12824E-03   -0.20748E-04  3703   0.222E-02    0.897E-02
RMM:   8    -0.115218871575E+04    0.31374E-04   -0.41294E-04  4030   0.253E-02    0.627E-02
RMM:   9    -0.115218872149E+04   -0.57393E-05   -0.11740E-04  3312   0.851E-03    0.599E-02
RMM:  10    -0.115218871307E+04    0.84222E-05   -0.12244E-05  2125   0.559E-03
   2486 T=   919. E= -.11392721E+04 F= -.11521887E+04 E0= -.11520894E+04  EK= 0.38351E+02 SP= -.26E+02 SK= 0.11E+00
 bond charge predicted
 prediction of wavefunctions
       N       E                     dE             d eps       ncg     rms          rms(c)
DAV:   1    -0.115156965119E+04    0.61907E+00   -0.46388E-01  6232   0.470E+00    0.842E-01
RMM:   2    -0.115162940161E+04   -0.59750E-01   -0.60747E-01  3886   0.120E+00    0.752E-01
RMM:   3    -0.115164419198E+04   -0.14790E-01   -0.26387E-01  4401   0.603E-01    0.303E-01
RMM:   4    -0.115165027139E+04   -0.60794E-02   -0.75475E-02  4862   0.220E-01    0.306E-01
RMM:   5    -0.115165027239E+04   -0.99688E-06   -0.40336E-03  5051   0.491E-02    0.251E-01
RMM:   6    -0.115165021581E+04    0.56576E-04   -0.29467E-04  4455   0.149E-02    0.210E-01
RMM:   7    -0.115165008791E+04    0.12791E-03   -0.20478E-04  3680   0.217E-02    0.923E-02
RMM:   8    -0.115165005464E+04    0.33268E-04   -0.46596E-04  4069   0.262E-02    0.623E-02
RMM:   9    -0.115165006030E+04   -0.56636E-05   -0.13034E-04  3392   0.946E-03    0.619E-02
RMM:  10    -0.115165004941E+04    0.10888E-04   -0.13753E-05  2119   0.531E-03    0.399E-02
RMM:  11    -0.115165004381E+04    0.56055E-05   -0.49578E-05  2651   0.656E-03
   2487 T=   895. E= -.11392638E+04 F= -.11516500E+04 E0= -.11515507E+04  EK= 0.37355E+02 SP= -.25E+02 SK= 0.12E+00
 bond charge predicted
 prediction of wavefunctions
       N       E                     dE             d eps       ncg     rms          rms(c)
DAV:   1    -0.115099924836E+04    0.65080E+00   -0.46238E-01  6400   0.456E+00    0.845E-01
RMM:   2    -0.115105702804E+04   -0.57780E-01   -0.58493E-01  3888   0.117E+00    0.725E-01
RMM:   3    -0.115107163129E+04   -0.14603E-01   -0.25571E-01  4385   0.594E-01    0.311E-01
RMM:   4    -0.115107745134E+04   -0.58201E-02   -0.73831E-02  4802   0.221E-01    0.302E-01
RMM:   5    -0.115107750095E+04   -0.49612E-04   -0.41708E-03  5047   0.487E-02    0.251E-01
RMM:   6    -0.115107746938E+04    0.31568E-04   -0.28694E-04  4518   0.135E-02    0.216E-01
RMM:   7    -0.115107735897E+04    0.11041E-03   -0.16013E-04  3719   0.190E-02    0.949E-02
RMM:   8    -0.115107732602E+04    0.32955E-04   -0.34354E-04  3999   0.234E-02    0.570E-02
RMM:   9    -0.115107733177E+04   -0.57501E-05   -0.11433E-04  3338   0.887E-03    0.611E-02
RMM:  10    -0.115107732503E+04    0.67359E-05   -0.10688E-05  2116   0.508E-03
   2488 T=   870. E= -.11392578E+04 F= -.11510773E+04 E0= -.11509779E+04  EK= 0.36338E+02 SP= -.25E+02 SK= 0.11E+00
 bond charge predicted
 prediction of wavefunctions
       N       E                     dE             d eps       ncg     rms          rms(c)
DAV:   1    -0.115048873661E+04    0.58860E+00   -0.42913E-01  6272   0.447E+00    0.827E-01
RMM:   2    -0.115054519287E+04   -0.56456E-01   -0.57441E-01  3904   0.116E+00    0.722E-01
RMM:   3    -0.115055852180E+04   -0.13329E-01   -0.24263E-01  4362   0.583E-01    0.296E-01
RMM:   4    -0.115056426547E+04   -0.57437E-02   -0.71791E-02  4812   0.218E-01    0.298E-01
RMM:   5    -0.115056429228E+04   -0.26818E-04   -0.39993E-03  5050   0.488E-02    0.245E-01
RMM:   6    -0.115056424769E+04    0.44592E-04   -0.28278E-04  4474   0.143E-02    0.207E-01
RMM:   7    -0.115056413897E+04    0.10872E-03   -0.15512E-04  3698   0.183E-02    0.995E-02
RMM:   8    -0.115056409871E+04    0.40263E-04   -0.38669E-04  4025   0.248E-02    0.553E-02
RMM:   9    -0.115056410524E+04   -0.65323E-05   -0.12591E-04  3399   0.956E-03    0.614E-02
RMM:  10    -0.115056409637E+04    0.88710E-05   -0.12987E-05  2117   0.506E-03
   2489 T=   848. E= -.11392494E+04 F= -.11505641E+04 E0= -.11504647E+04  EK= 0.35421E+02 SP= -.24E+02 SK= 0.91E-01
 bond charge predicted
 prediction of wavefunctions
       N       E                     dE             d eps       ncg     rms          rms(c)
DAV:   1    -0.115013305445E+04    0.43105E+00   -0.41000E-01  6304   0.441E+00    0.807E-01
RMM:   2    -0.115018794503E+04   -0.54891E-01   -0.56139E-01  3880   0.116E+00    0.734E-01
RMM:   3    -0.115020102045E+04   -0.13075E-01   -0.24234E-01  4399   0.580E-01    0.285E-01
RMM:   4    -0.115020670263E+04   -0.56822E-02   -0.69178E-02  4851   0.208E-01    0.299E-01
RMM:   5    -0.115020670921E+04   -0.65757E-05   -0.36502E-03  5047   0.460E-02    0.247E-01
RMM:   6    -0.115020666973E+04    0.39483E-04   -0.26132E-04  4473   0.135E-02    0.211E-01
RMM:   7    -0.115020654001E+04    0.12971E-03   -0.21505E-04  3740   0.221E-02    0.755E-02
RMM:   8    -0.115020651936E+04    0.20650E-04   -0.36723E-04  4034   0.233E-02    0.648E-02
RMM:   9    -0.115020652314E+04   -0.37765E-05   -0.10668E-04  3271   0.867E-03    0.613E-02
RMM:  10    -0.115020651559E+04    0.75444E-05   -0.10607E-05  2117   0.523E-03
   2490 T=   832. E= -.11392412E+04 F= -.11502065E+04 E0= -.11501073E+04  EK= 0.34717E+02 SP= -.24E+02 SK= 0.66E-01
 bond charge predicted
 prediction of wavefunctions
       N       E                     dE             d eps       ncg     rms          rms(c)
DAV:   1    -0.115000007530E+04    0.20645E+00   -0.40419E-01  6248   0.439E+00    0.824E-01
RMM:   2    -0.115005417249E+04   -0.54097E-01   -0.55797E-01  3844   0.118E+00    0.756E-01
RMM:   3    -0.115006672840E+04   -0.12556E-01   -0.24163E-01  4377   0.587E-01    0.267E-01
RMM:   4    -0.115007287658E+04   -0.61482E-02   -0.73165E-02  4954   0.213E-01    0.291E-01
RMM:   5    -0.115007284533E+04    0.31250E-04   -0.34585E-03  5044   0.448E-02    0.237E-01
RMM:   6    -0.115007280194E+04    0.43391E-04   -0.25849E-04  4365   0.141E-02    0.198E-01
RMM:   7    -0.115007268877E+04    0.11317E-03   -0.19274E-04  3707   0.209E-02    0.764E-02
RMM:   8    -0.115007266308E+04    0.25682E-04   -0.33789E-04  3974   0.230E-02    0.588E-02
RMM:   9    -0.115007266851E+04   -0.54204E-05   -0.11170E-04  3290   0.862E-03    0.595E-02
RMM:  10    -0.115007266051E+04    0.79986E-05   -0.11065E-05  2117   0.524E-03
   2491 T=   822. E= -.11392374E+04 F= -.11500727E+04 E0= -.11499737E+04  EK= 0.34299E+02 SP= -.24E+02 SK= 0.41E-01
 bond charge predicted
 prediction of wavefunctions
       N       E                     dE             d eps       ncg     rms          rms(c)
DAV:   1    -0.115011825188E+04   -0.45583E-01   -0.39663E-01  6248   0.440E+00    0.813E-01
RMM:   2    -0.115017318910E+04   -0.54937E-01   -0.56986E-01  3829   0.120E+00    0.771E-01
RMM:   3    -0.115018571506E+04   -0.12526E-01   -0.24503E-01  4395   0.586E-01    0.262E-01
RMM:   4    -0.115019189757E+04   -0.61825E-02   -0.72216E-02  5077   0.206E-01    0.297E-01
RMM:   5    -0.115019183375E+04    0.63822E-04   -0.30679E-03  5051   0.407E-02    0.245E-01
RMM:   6    -0.115019179015E+04    0.43604E-04   -0.24011E-04  4313   0.132E-02    0.207E-01
RMM:   7    -0.115019165467E+04    0.13547E-03   -0.24156E-04  3722   0.236E-02    0.690E-02
RMM:   8    -0.115019163597E+04    0.18702E-04   -0.34986E-04  4005   0.223E-02    0.598E-02
RMM:   9    -0.115019164045E+04   -0.44766E-05   -0.10650E-04  3229   0.824E-03    0.571E-02
RMM:  10    -0.115019163236E+04    0.80840E-05   -0.12222E-05  2119   0.587E-03
   2492 T=   819. E= -.11392373E+04 F= -.11501916E+04 E0= -.11500931E+04  EK= 0.34204E+02 SP= -.23E+02 SK= 0.20E-01
 bond charge predicted
 prediction of wavefunctions
       N       E                     dE             d eps       ncg     rms          rms(c)
DAV:   1    -0.115047834328E+04   -0.28670E+00   -0.39883E-01  6224   0.446E+00    0.812E-01
RMM:   2    -0.115053425126E+04   -0.55908E-01   -0.58097E-01  3834   0.121E+00    0.770E-01
RMM:   3    -0.115054686212E+04   -0.12611E-01   -0.24581E-01  4401   0.583E-01    0.264E-01
RMM:   4    -0.115055298172E+04   -0.61196E-02   -0.71427E-02  5095   0.205E-01    0.298E-01
RMM:   5    -0.115055291841E+04    0.63308E-04   -0.30371E-03  5035   0.407E-02    0.245E-01
RMM:   6    -0.115055287144E+04    0.46977E-04   -0.24497E-04  4285   0.136E-02    0.205E-01
RMM:   7    -0.115055274653E+04    0.12490E-03   -0.21017E-04  3706   0.221E-02    0.800E-02
RMM:   8    -0.115055271807E+04    0.28464E-04   -0.36660E-04  3996   0.240E-02    0.606E-02
RMM:   9    -0.115055272378E+04   -0.57152E-05   -0.11741E-04  3282   0.842E-03    0.581E-02
RMM:  10    -0.115055271415E+04    0.96325E-05   -0.13863E-05  2120   0.602E-03
   2493 T=   824. E= -.11392372E+04 F= -.11505527E+04 E0= -.11504547E+04  EK= 0.34424E+02 SP= -.23E+02 SK= 0.72E-02
 bond charge predicted
 prediction of wavefunctions
       N       E                     dE             d eps       ncg     rms          rms(c)
DAV:   1    -0.115101894442E+04   -0.46622E+00   -0.39002E-01  6208   0.453E+00    0.825E-01
RMM:   2    -0.115107527719E+04   -0.56333E-01   -0.58810E-01  3834   0.123E+00    0.780E-01
RMM:   3    -0.115108732280E+04   -0.12046E-01   -0.24309E-01  4370   0.586E-01    0.255E-01
RMM:   4    -0.115109385077E+04   -0.65280E-02   -0.75355E-02  5104   0.211E-01    0.293E-01
RMM:   5    -0.115109378419E+04    0.66582E-04   -0.31544E-03  5000   0.422E-02    0.242E-01
RMM:   6    -0.115109374284E+04    0.41344E-04   -0.26427E-04  4400   0.135E-02    0.204E-01
RMM:   7    -0.115109363370E+04    0.10915E-03   -0.15419E-04  3665   0.190E-02    0.100E-01
RMM:   8    -0.115109358800E+04    0.45701E-04   -0.37948E-04  3980   0.257E-02    0.527E-02
RMM:   9    -0.115109359599E+04   -0.79990E-05   -0.12723E-04  3338   0.868E-03    0.547E-02
RMM:  10    -0.115109358693E+04    0.90645E-05   -0.12734E-05  2117   0.567E-03
   2494 T=   836. E= -.11392397E+04 F= -.11510936E+04 E0= -.11509962E+04  EK= 0.34888E+02 SP= -.23E+02 SK= 0.11E-02
 bond charge predicted
 prediction of wavefunctions
       N       E                     dE             d eps       ncg     rms          rms(c)
DAV:   1    -0.115165426575E+04   -0.56067E+00   -0.39750E-01  6200   0.462E+00    0.825E-01
RMM:   2    -0.115171169063E+04   -0.57425E-01   -0.59954E-01  3844   0.123E+00    0.777E-01
RMM:   3    -0.115172434133E+04   -0.12651E-01   -0.24845E-01  4394   0.585E-01    0.268E-01
RMM:   4    -0.115173063207E+04   -0.62907E-02   -0.73546E-02  5071   0.210E-01    0.300E-01
RMM:   5    -0.115173056840E+04    0.63676E-04   -0.31885E-03  4997   0.435E-02    0.249E-01
RMM:   6    -0.115173052206E+04    0.46341E-04   -0.27138E-04  4454   0.140E-02    0.207E-01
RMM:   7    -0.115173040405E+04    0.11801E-03   -0.17545E-04  3655   0.208E-02    0.968E-02
RMM:   8    -0.115173036202E+04    0.42026E-04   -0.42303E-04  4035   0.266E-02    0.594E-02
RMM:   9    -0.115173036888E+04   -0.68589E-05   -0.12280E-04  3294   0.855E-03    0.580E-02
RMM:  10    -0.115173035867E+04    0.10211E-04   -0.13918E-05  2117   0.585E-03    0.320E-02
RMM:  11    -0.115173035461E+04    0.40574E-05   -0.22943E-05  2342   0.503E-03
   2495 T=   850. E= -.11392467E+04 F= -.11517304E+04 E0= -.11516334E+04  EK= 0.35502E+02 SP= -.23E+02 SK= 0.74E-04
 bond charge predicted
 prediction of wavefunctions
       N       E                     dE             d eps       ncg     rms          rms(c)
DAV:   1    -0.115228963886E+04   -0.55928E+00   -0.40018E-01  6200   0.469E+00    0.832E-01
RMM:   2    -0.115234798700E+04   -0.58348E-01   -0.61007E-01  3827   0.125E+00    0.785E-01
RMM:   3    -0.115236127004E+04   -0.13283E-01   -0.25648E-01  4387   0.592E-01    0.277E-01
RMM:   4    -0.115236771848E+04   -0.64484E-02   -0.75170E-02  5073   0.214E-01    0.310E-01
RMM:   5    -0.115236765015E+04    0.68333E-04   -0.32285E-03  4994   0.442E-02    0.259E-01
RMM:   6    -0.115236760515E+04    0.44999E-04   -0.26922E-04  4486   0.134E-02    0.220E-01
RMM:   7    -0.115236747344E+04    0.13172E-03   -0.18922E-04  3680   0.216E-02    0.103E-01
RMM:   8    -0.115236742668E+04    0.46757E-04   -0.45385E-04  4058   0.276E-02    0.592E-02
RMM:   9    -0.115236743317E+04   -0.64894E-05   -0.12127E-04  3266   0.835E-03    0.550E-02
RMM:  10    -0.115236742349E+04    0.96791E-05   -0.14939E-05  2116   0.633E-03
   2496 T=   866. E= -.11392484E+04 F= -.11523674E+04 E0= -.11522708E+04  EK= 0.36168E+02 SP= -.23E+02 SK= 0.15E-02
 bond charge predicted
 prediction of wavefunctions
       N       E                     dE             d eps       ncg     rms          rms(c)
DAV:   1    -0.115285592931E+04   -0.48850E+00   -0.34395E-01  6072   0.474E+00    0.813E-01
RMM:   2    -0.115291189980E+04   -0.55970E-01   -0.58809E-01  3835   0.123E+00    0.785E-01
RMM:   3    -0.115292459249E+04   -0.12693E-01   -0.24955E-01  4406   0.588E-01    0.259E-01
RMM:   4    -0.115293079095E+04   -0.61985E-02   -0.71723E-02  5088   0.208E-01    0.295E-01
RMM:   5    -0.115293070155E+04    0.89399E-04   -0.30181E-03  4877   0.444E-02    0.243E-01
RMM:   6    -0.115293064274E+04    0.58816E-04   -0.29396E-04  4493   0.155E-02    0.198E-01
RMM:   7    -0.115293052103E+04    0.12171E-03   -0.18137E-04  3659   0.211E-02    0.965E-02
RMM:   8    -0.115293047694E+04    0.44086E-04   -0.47035E-04  4067   0.278E-02    0.565E-02
RMM:   9    -0.115293048312E+04   -0.61812E-05   -0.12061E-04  3256   0.856E-03    0.535E-02
RMM:  10    -0.115293047196E+04    0.11160E-04   -0.16177E-05  2122   0.621E-03    0.264E-02
RMM:  11    -0.115293046904E+04    0.29192E-05   -0.26595E-05  2448   0.504E-03
   2497 T=   881. E= -.11392491E+04 F= -.11529305E+04 E0= -.11528340E+04  EK= 0.36793E+02 SP= -.23E+02 SK= 0.31E-02
 bond charge predicted
 prediction of wavefunctions
       N       E                     dE             d eps       ncg     rms          rms(c)
DAV:   1    -0.115329660376E+04   -0.36613E+00   -0.34264E-01  6240   0.475E+00    0.794E-01
RMM:   2    -0.115335160215E+04   -0.54998E-01   -0.57397E-01  3848   0.121E+00    0.766E-01
RMM:   3    -0.115336469749E+04   -0.13095E-01   -0.24830E-01  4453   0.580E-01    0.261E-01
RMM:   4    -0.115337039441E+04   -0.56969E-02   -0.66549E-02  5081   0.199E-01    0.292E-01
RMM:   5    -0.115337031980E+04    0.74615E-04   -0.28151E-03  4899   0.419E-02    0.243E-01
RMM:   6    -0.115337027204E+04    0.47759E-04   -0.26034E-04  4460   0.138E-02    0.204E-01
RMM:   7    -0.115337013809E+04    0.13395E-03   -0.21811E-04  3684   0.234E-02    0.828E-02
RMM:   8    -0.115337010453E+04    0.33558E-04   -0.40473E-04  3993   0.256E-02    0.573E-02
RMM:   9    -0.115337010993E+04   -0.53992E-05   -0.10786E-04  3254   0.786E-03    0.494E-02
RMM:  10    -0.115337010190E+04    0.80245E-05   -0.14526E-05  2119   0.645E-03
   2498 T=   894. E= -.11392497E+04 F= -.11533701E+04 E0= -.11532736E+04  EK= 0.37312E+02 SP= -.23E+02 SK= 0.39E-02
 bond charge predicted
 prediction of wavefunctions
       N       E                     dE             d eps       ncg     rms          rms(c)
DAV:   1    -0.115359818291E+04   -0.22807E+00   -0.34728E-01  6352   0.474E+00    0.800E-01
RMM:   2    -0.115365297875E+04   -0.54796E-01   -0.56956E-01  3879   0.119E+00    0.744E-01
RMM:   3    -0.115366566230E+04   -0.12684E-01   -0.23981E-01  4426   0.576E-01    0.264E-01
RMM:   4    -0.115367132997E+04   -0.56677E-02   -0.67069E-02  5001   0.203E-01    0.288E-01
RMM:   5    -0.115367127416E+04    0.55814E-04   -0.30782E-03  4940   0.444E-02    0.238E-01
RMM:   6    -0.115367121846E+04    0.55691E-04   -0.26905E-04  4453   0.148E-02    0.194E-01
RMM:   7    -0.115367109801E+04    0.12045E-03   -0.20547E-04  3663   0.222E-02    0.833E-02
RMM:   8    -0.115367106601E+04    0.32005E-04   -0.43543E-04  4051   0.259E-02    0.613E-02
RMM:   9    -0.115367107058E+04   -0.45717E-05   -0.11588E-04  3287   0.869E-03    0.556E-02
RMM:  10    -0.115367105888E+04    0.11699E-04   -0.15677E-05  2127   0.588E-03    0.281E-02
RMM:  11    -0.115367105558E+04    0.32981E-05   -0.27856E-05  2468   0.500E-03
   2499 T=   903. E= -.11392489E+04 F= -.11536711E+04 E0= -.11535742E+04  EK= 0.37698E+02 SP= -.23E+02 SK= 0.38E-02
 bond charge predicted
 prediction of wavefunctions
       N       E                     dE             d eps       ncg     rms          rms(c)
DAV:   1    -0.115377104713E+04   -0.99988E-01   -0.37075E-01  6384   0.472E+00    0.807E-01
RMM:   2    -0.115382769391E+04   -0.56647E-01   -0.58295E-01  3903   0.118E+00    0.721E-01
RMM:   3    -0.115384087632E+04   -0.13182E-01   -0.24044E-01  4425   0.573E-01    0.278E-01
RMM:   4    -0.115384639234E+04   -0.55160E-02   -0.66613E-02  4930   0.204E-01    0.288E-01
RMM:   5    -0.115384638872E+04    0.36257E-05   -0.33256E-03  5039   0.446E-02    0.240E-01
RMM:   6    -0.115384634836E+04    0.40354E-04   -0.25040E-04  4451   0.130E-02    0.201E-01
RMM:   7    -0.115384622434E+04    0.12403E-03   -0.22347E-04  3709   0.232E-02    0.708E-02
RMM:   8    -0.115384620316E+04    0.21176E-04   -0.34427E-04  4005   0.227E-02    0.610E-02
RMM:   9    -0.115384620701E+04   -0.38494E-05   -0.95735E-05  3234   0.767E-03
   2500 T=   909. E= -.11392464E+04 F= -.11538462E+04 E0= -.11537488E+04  EK= 0.37956E+02 SP= -.23E+02 SK= 0.30E-02
 bond charge predicted
 prediction of wavefunctions
 wavefunctions rotated
Warning: ieee_invalid is signaling
Warning: ieee_divide_by_zero is signaling
Warning: ieee_underflow is signaling
Warning: ieee_inexact is signaling
FORTRAN STOP
