  1.0523298e-02   1.3484461e-04
 -4.7291390e-04   1.0284738e-03
 -1.7643623e-01   3.5731174e-04
 -1.8114756e-03   6.9010141e-04
 -6.3599078e-03   3.5064737e-04
  3.6924857e-01   9.0816570e-04
  1.1450788e-02   1.1016293e-03
  1.4774967e-02   3.2268083e-04
  5.1758211e-04   5.0164433e-04
  4.1387661e-04   3.0271923e-03
 -1.0415942e-03   2.6608559e-03
  3.3328300e-03   4.8490035e-04
 -2.9483598e-03   1.2792180e-03
  4.1429754e-03   2.1809120e-04
 -2.8357379e-02   4.3150628e-04
 -1.2390998e-03   3.9758384e-03
 -5.4627759e-03   2.2452658e-04
 -4.0115233e-04   2.1007510e-03
 -1.4904778e-02   1.8739820e-03
  5.7622460e-03   2.7692644e-03
  1.5167731e-01   6.2890287e-04
 -1.6668228e-03   6.8903907e-04
 -4.2240992e-03   9.1119367e-04
  3.4248731e-03   1.9637132e-03
 -3.4610013e-04   1.9943516e-03
 -9.1158245e-03   5.8491929e-03
 -1.4434852e-02   1.3873724e-03
  1.6809952e-02   3.7971756e-03
  2.7051967e-02   7.8541687e-04
 -6.8927351e-03   7.6777325e-04
  1.9921515e-02   1.9900845e-03
 -6.8130479e-03   1.1066156e-03
  3.8844475e-04   1.8863631e-03
  5.6841807e-03   3.7148169e-03
  1.2119303e-02   6.5833546e-04
 -1.3144803e-02   2.7954008e-04
  2.9359921e-03   2.8406512e-03
 -5.4326444e-03   1.6976726e-03
  2.6015202e-03   3.5042188e-03
  9.5445747e-03   2.1398054e-03
  4.2284917e-04   1.1210412e-03
 -1.2262834e-02   2.0883763e-03
 -5.4550101e-04   8.0544240e-04
 -8.0165043e-03   7.3736190e-04
 -1.6032341e-04   3.4945377e-04
  4.0153850e-02   6.4479501e-04
  9.6958224e-03   3.4924867e-04
 -1.9696660e-03   8.0376159e-04
 -1.9926126e-01   1.7735775e-04
 -3.8025335e-03   1.4628919e-03
 -5.6423321e-03   2.6463734e-03
  3.5637491e-03   8.1862288e-04
  5.9353396e-02   2.5864286e-04
  2.7837919e-03   1.7538249e-03
 -1.3233334e-04   2.5636069e-03
 -9.6022189e-03   1.9131370e-03
 -1.9034002e-02   6.4608786e-04
  8.1978925e-03   1.6308643e-03
 -4.7390419e-04   1.0717419e-03
 -3.5805646e-03   2.5756473e-03
 -5.7298099e-03   1.4078391e-03
 -3.8289544e-03   2.6917630e-03
  3.8315353e-03   1.5574972e-03
 -1.1446459e-02   9.9777617e-04
  1.5503062e-03   3.6808560e-03
 -6.0085747e-03   1.2875233e-03
  1.0094067e-02   2.1416089e-03
 -1.7024647e-02   4.1033779e-03
 -1.4568861e-03   4.0215352e-03
  1.0972243e-02   4.0189638e-03
  8.1798276e-03   1.6795631e-03
  1.2820406e-02   1.9616531e-03
 -3.2065660e-02   9.5309154e-04
 -1.9848494e-02   1.0001425e-03
  1.6404998e-02   3.6388522e-03
 -5.3688181e-03   2.4038388e-03
 -1.1673725e-02   2.7774831e-03
  5.6257136e-03   3.0369398e-03
 -7.5427494e-03   2.6438779e-03
 -3.2030759e-04   9.6913002e-04
 -5.5744968e-02   5.4528483e-04
 -4.2472358e-04   2.2589369e-03
  4.6943291e-03   1.0794684e-03
  1.6950546e-02   4.2495122e-03
  1.0319162e-02   4.1365279e-03
  8.7921061e-03   1.9183281e-03
 -3.2059400e-04   6.3061045e-04
  5.6090695e-04   2.0285693e-03
  1.5663455e-01   9.9857990e-04
 -5.1152159e-04   2.0690640e-03
  5.3102732e-02   6.7488884e-04
  1.1983293e-01   2.1671888e-03
  3.9423409e-01   1.4740294e-03
 -3.4149319e-03   1.7040367e-03
 -4.7080852e-03   8.6490170e-04
 -7.1786451e-01   7.1243098e-04
  2.6680639e-03   9.7316370e-04
 -8.0774951e-01   3.0306175e-03
 -7.7910861e-03   3.2134471e-03
  4.7649238e-03   3.1405513e-03
  8.4452732e-03   2.4883733e-03
 -2.3106322e-02   1.1606860e-03
  1.1989085e-03   2.3195993e-03
  2.0581998e-03   2.8434426e-03
 -5.8471574e-04   1.4097419e-03
  2.2912422e-02   1.2708218e-03
 -4.5470083e-03   2.2281019e-03
 -1.0866348e+00   7.2197220e-04
  8.9496300e-03   2.0908115e-03
 -7.5700687e-04   1.0523024e-03
 -7.4024033e-03   1.5637773e-03
  5.9087011e-03   6.5064785e-04
 -3.0498249e-03   2.2161666e-03
  2.1274362e-02   5.1775528e-03
  2.1706056e-03   6.0617219e-04
  1.4422387e-01   1.7988756e-03
  1.1127345e-02   1.0511969e-03
 -5.3734686e-02   1.5197899e-03
 -4.7641201e-03   2.8519237e-03
 -7.6785851e-03   4.2305561e-03
 -9.8903105e-03   3.2173975e-03
 -1.5149673e-02   3.7059353e-03
  2.9993369e-04   2.2017467e-03
  3.4073230e-02   1.8924521e-03
  6.1750566e-03   2.6528724e-03
  6.0411617e-03   2.9627990e-03
  9.2292158e-03   3.3245825e-03
  1.6747769e-02   3.6259061e-03
  6.5541826e-04   3.0405046e-03
  5.0530476e-03   4.8806029e-03
 -1.2086898e-01   6.0670468e-04
  3.3575564e-03   3.5615719e-03
  9.2676884e-01   2.5488046e-04
 -3.1517884e-01   3.3380560e-04
  1.9918989e-01   1.6068271e-04
  5.2465624e-01   1.7704740e-04
 -7.4237007e-01   1.7972526e-04
 -2.5037965e-01   1.2168127e-04
 -3.9682171e-01   2.5550585e-04
  1.5307456e-01   4.1984404e-05
 -7.7608854e-01   4.9947621e-04
  5.4564804e-02   3.3413287e-04
 -4.6057994e-03   4.7847498e-04
 -4.0183808e-03   9.0875005e-04
 -8.8496707e-02   2.2853438e-03
  4.7282861e-03   9.3587214e-04
  4.1633826e-02   1.2840460e-03
 -5.2105248e-01   2.9249331e-03
 -2.9991600e-01   9.0114359e-04
 -1.8572254e-01   7.8318917e-05
  1.6765489e-01   1.6440416e-03
 -3.4542486e-02   9.4389450e-04
 -4.0541294e-01   5.9575005e-04
 -1.0978661e-01   6.2746508e-04
  6.3943177e-02   2.6003260e-04
  1.1157094e-02   3.6733301e-04
 -5.4203328e-02   1.4994586e-03
  1.0147534e-01   1.7050697e-03
 -8.5948296e-03   7.9751870e-04
 -4.1526443e-01   8.0902723e-04
  4.3310994e-01   7.6888996e-04
  1.1995249e-02   5.7601917e-04
  1.4195759e-02   1.1242129e-03
  1.8148312e-02   2.6876673e-03
 -6.7552589e-03   1.7494403e-03
 -1.3234386e-02   1.0453944e-04
 -1.0385555e-02   7.7589409e-04
  5.7753801e-01   9.4773975e-04
 -8.6204678e-02   7.3179032e-04
 -1.5218312e-01   1.8787681e-03
 -8.1750527e-02   3.8375584e-03
  4.3365862e-03   5.7971450e-03
 -2.3736835e-02   7.0212496e-04
 -6.7973644e-03   5.2212849e-03
 -7.7033855e-02   2.2898742e-03
  7.4875101e-02   1.3433256e-03
 -1.1573453e-03   2.2818688e-03
  4.7885198e-03   2.0635629e-03
  1.1672751e-01   4.3932229e-04
 -3.7119519e-03   6.1992469e-04
 -1.3931187e-02   1.7989042e-03
  3.7556637e-02   1.8201157e-03
  4.7167004e-03   2.2180260e-03
  2.7493274e-02   6.2180462e-04
 -2.8502895e-05   3.5568967e-03
  1.5797513e-02   1.7396166e-03
 -7.0356703e-03   1.9960890e-03
  4.7179061e-01   4.5141572e-04
 -9.2813215e-04   1.0526830e-03
 -7.9597840e-03   1.4595701e-03
  7.6871319e-03   3.8069966e-03
 -4.1536782e-03   5.7927384e-03
 -2.2047458e-02   4.4010227e-04
 -7.1509522e-03   1.4695766e-03
  1.5909155e-03   2.8281489e-03
 -1.6692378e-02   2.8462724e-03
 -1.7924461e-03   1.7150869e-03
 -6.3128108e-03   2.4919047e-03
  2.5180213e-02   1.5593515e-03
  1.0789038e-02   1.6264226e-03
  6.3474575e-04   2.1273373e-03
 -6.7162579e-03   3.1246007e-03
 -4.7529326e-03   2.4429746e-03
  9.1182999e-03   2.3932711e-03
 -7.5286278e-03   5.8403658e-04
  1.1803474e-02   7.1872748e-04
  2.2538805e-03   9.6296746e-04
  1.1002947e-02   2.9365625e-03
  2.1935627e-02   4.3787244e-03
 -3.4894656e-02   3.6068863e-04
 -4.2962041e-03   5.0472310e-03
 -1.6434980e-03   1.5177910e-03
 -3.2583536e-03   1.0809619e-03
 -1.5555634e-02   1.8981134e-03
  2.4254133e-03   9.7028253e-04
  7.5069710e-04   3.0631158e-03
 -4.5986860e-03   1.4556274e-03
 -2.7717471e-02   2.3295416e-03
  3.7600880e-03   7.4322562e-04
 -1.6096668e-02   2.0174622e-03
  1.7500585e+00   7.0145703e-05
  2.5908155e+00   2.2072291e-04
 -1.5403466e+00   3.8974889e-05
  7.4095488e-01   9.3507060e-06
 -9.9783719e-01   2.7474531e-05
  4.7354588e-01   2.9748571e-04
 -5.6323677e-02   6.5824616e-04
  1.4547300e-01   3.7861366e-05
  1.2410742e-02   1.4864364e-04
  4.0103349e-01   8.5164211e-04
 -7.2411083e-02   7.4765109e-04
  3.5277981e-01   1.0724324e-03
  1.3083690e-01   2.5559622e-03
  5.5417293e-01   1.4770459e-03
 -1.1134645e+00   1.5232114e-03
 -1.5894667e+00   1.5641841e-03
  1.7746271e+00   2.0077188e-05
  1.2392795e-01   5.5873406e-04
 -6.5804517e-01   1.2297861e-03
  5.1656109e-01   6.1557052e-04
 -4.7473931e-01   1.2539424e-03
  5.8918232e-01   8.5096626e-04
  7.4847199e-02   2.4954946e-04
 -2.7440873e-01   5.7261169e-04
  1.0049690e+00   7.8411453e-04
  4.5036101e-01   1.2781316e-03
  3.5771075e-01   6.5478485e-04
 -8.1364983e-01   1.0516739e-03
 -7.8606522e-01   2.2267723e-04
 -6.0644633e-01   1.9970931e-04
 -1.8629876e-01   3.0104581e-03
 -1.4165979e-02   1.3096064e-03
  1.4849919e-02   6.2287808e-04
 -4.4269275e-02   1.8913651e-04
 -5.8682315e-02   7.2347571e-04
 -3.9821398e-02   1.3868586e-03
  6.2047666e-01   6.7416945e-04
 -5.0486997e-04   2.6953586e-03
 -6.0179776e-01   5.2991197e-03
 -7.2487951e-03   2.1546660e-03
 -5.1695898e-02   1.7678310e-03
  1.2624272e-02   1.4585712e-03
  5.3347938e-02   6.0398260e-04
 -5.1169130e-03   3.4081272e-03
 -1.4075540e+00   9.8138209e-04
  5.2843112e-02   3.7602001e-04
  1.0392560e+00   2.6895193e-04
 -8.9441173e-02   8.1507961e-04
 -9.5349175e-01   2.9752284e-04
  1.6033269e-01   4.8088751e-04
 -5.7568452e-03   8.6075807e-04
 -1.2412059e+00   1.7912542e-04
  9.8547814e-03   1.1047982e-03
  8.3016651e-03   2.4033363e-03
  1.1428708e-02   1.1963263e-03
  6.4636201e-02   7.0997063e-05
 -5.6600743e-03   2.1615324e-03
 -1.5420230e-02   2.9294360e-03
  1.6042210e-02   2.6308289e-03
 -1.5765594e-02   3.8875130e-03
  1.1349490e-02   2.6467415e-03
 -1.1530635e-02   1.7624534e-03
 -4.5224642e-03   6.6926773e-04
  5.2596200e-03   5.6092450e-03
  1.2576376e-02   2.1755255e-03
 -1.3516814e-02   1.5693849e-03
  1.0764641e-02   6.1260507e-04
  8.2818577e-03   1.8314966e-03
 -4.0078675e-03   1.0648323e-03
  1.9332349e-02   2.9136406e-03
 -8.9754462e-03   1.0946038e-03
  2.9185117e-04   2.8040844e-03
 -2.8064838e-03   1.2042979e-03
 -3.7110662e-03   1.7268694e-03
  6.8997801e-04   1.7786644e-03
  2.2063910e-03   3.6066100e-03
  4.2028157e-03   3.6691150e-03
  5.1724203e-03   2.1060824e-03
  4.0889746e-03   2.9115190e-03
 -1.6670290e-02   3.0169026e-03
  7.0184171e-03   2.0882322e-03
 -1.1185751e-02   1.6342343e-03
 -1.9843563e-02   4.8495480e-03
  1.7257055e-03   2.2258097e-03
 -4.3670364e-02   4.9826428e-03
 -4.7905864e-03   1.7848269e-03
 -1.1380729e-03   1.3456600e-03
 -1.1025309e-02   4.2618704e-03
 -7.0336636e-04   8.8058470e-04
  1.7016400e-01   3.4797029e-04
  1.7559357e-01   8.9923234e-04
  4.8920563e-03   2.2207564e-04
  4.0460584e-01   1.0226758e-03
 -2.2770632e-03   1.0366901e-03
  1.9445857e-03   6.1469042e-04
  8.2120553e-02   1.8241920e-04
  3.5571045e-01   7.9456810e-04
 -5.8863416e-02   9.5515494e-04
  1.8570524e-02   2.5202860e-03
  2.7216669e-02   1.4361149e-03
  6.2593091e-03   2.2863981e-03
  4.3521579e-03   2.2736958e-03
  2.1796281e-02   3.4095861e-03
  3.6873401e-03   2.0756007e-03
  6.6414148e-02   1.0249673e-03
  1.7681337e-03   1.4252012e-03
 -2.7666891e-02   2.2270991e-03
  4.0967101e-03   9.7800081e-04
 -1.0498754e-02   3.3850365e-03
 -2.6942936e-03   1.1442015e-04
  7.5660762e-03   4.4525214e-04
  8.0733942e-03   1.9029292e-03
 -2.3292266e-03   2.3590124e-03
 -9.3746446e-03   2.0377282e-03
  2.5073236e-03   1.3893590e-03
  1.0849364e-02   1.4936479e-03
 -1.6569804e-02   7.1805745e-04
 -8.9381292e-02   4.5605967e-04
  5.1796306e-03   2.1244807e-03
 -1.5980590e-02   2.2618866e-03
  2.3526447e-03   8.1503380e-04
 -1.3148662e-04   1.6674873e-03
  1.5184930e-02   3.3624349e-03
 -9.7608358e-02   1.3498840e-03
 -9.7770523e-04   3.0378650e-03
  1.2726339e-02   4.9888920e-03
  2.9209629e-03   1.6982126e-03
  1.9463675e-02   2.4495986e-03
  4.3572027e-02   1.8907960e-03
 -7.7243922e-03   2.6701579e-03
 -9.7908555e-03   1.4129099e-03
  2.0050087e-03   1.7568649e-03
 -3.8204408e-01   1.7230879e-03
  7.5918809e-02   6.6969194e-04
  4.2991113e-02   9.2461245e-04
  1.3874607e-01   7.2777446e-04
  3.5912186e-02   8.1560155e-04
 -5.6472435e-03   1.3620311e-03
  3.0685167e-03   7.0149271e-04
 -3.9610681e-01   4.9243640e-04
  5.8263186e-02   1.3363956e-03
  1.1572749e-02   4.8178723e-03
  4.9660271e-03   2.5411961e-03
  4.6912573e-02   1.8635578e-03
  5.1826616e-03   1.9935116e-03
  3.4962492e+00   2.0886080e-05
  2.0404388e-03   9.2605932e-04
 -3.6442385e-03   2.3854936e-03
  6.0836887e-03   1.9043993e-03
  4.8894025e-03   1.6395007e-03
 -8.5579855e-03   2.2207394e-03
 -1.9713048e-02   1.5307082e-03
 -4.6779839e-03   2.7864005e-03
 -2.9379532e-02   1.3075622e-03
 -9.7156458e-02   1.9770449e-03
 -4.1332759e-04   3.8989047e-03
  3.6124531e-03   2.1410908e-03
 -1.2405974e-02   1.2602414e-03
 -5.5038985e-03   1.1188375e-03
  1.8906670e-02   2.0214040e-03
  1.6158326e-02   3.8034836e-04
 -2.2810297e-02   1.6849426e-03
  8.1317080e-03   5.8062992e-04
 -1.6326882e-02   1.2826674e-03
  3.7448127e-03   2.8829973e-03
 -2.7994297e-03   3.7596594e-03
  8.0257835e-04   2.0558669e-03
 -7.5660124e-02   3.0054330e-04
  5.1025455e-03   2.8103236e-03
 -1.9153018e-01   1.0922737e-03
 -4.4215322e-03   2.9194825e-03
  5.1038275e-03   1.7356332e-03
  5.9745647e-03   1.7030708e-03
  7.3132478e-03   4.0833494e-03
  1.3765790e-02   1.8495376e-03
 -3.2659326e-02   4.8057036e-03
  1.1562090e-01   1.9188272e-04
 -3.7233433e-01   5.4201453e-05
  6.6748911e-01   8.4092142e-05
  4.1161385e-01   3.2220516e-04
  4.1671699e-01   4.8567999e-05
 -1.0934364e+00   8.6874992e-05
 -8.7447220e-01   3.4724837e-04
  9.2490137e-01   7.9675512e-05
 -4.9458218e-01   1.5331578e-04
  5.1418561e-01   2.1286528e-03
 -6.2155700e-01   1.1349182e-03
  1.8537910e-01   1.0900089e-04
  5.7334346e-01   8.8133110e-04
 -1.0025468e+00   6.4296444e-04
 -3.0332801e+00   9.7378698e-04
  6.8322271e-01   2.6912836e-04
 -5.5674863e-01   6.0959323e-04
  2.8235269e-01   5.8242411e-04
 -9.0311551e-03   8.9042605e-04
  1.8824963e-01   1.5645493e-04
 -2.4888256e-01   1.9587015e-04
  5.5784142e-01   2.4479088e-05
 -8.4067678e-01   7.6642282e-05
 -1.2135915e+00   4.5841874e-04
 -1.3513139e+00   7.0335118e-05
 -1.8008533e+00   2.4102190e-04
 -1.6140969e+00   1.5668033e-04
  2.0265374e-01   1.4644174e-04
  3.0522650e-01   8.7363303e-05
  6.4412308e-01   8.9988578e-05
 -3.4521573e+00   5.1423837e-04
 -2.1679689e-01   9.5897948e-04
 -7.2194856e-01   1.3601902e-03
 -5.1432776e-01   6.3377758e-04
 -1.5730390e-03   9.1307517e-04
  1.3740834e+00   1.0413339e-03
 -2.7630916e-03   4.3757583e-04
 -6.8098873e-01   3.0136621e-03
 -1.1362277e+00   3.7619690e-04
 -6.2807754e-02   7.8499352e-04
 -4.0672418e-01   6.9190993e-04
  3.6332034e-02   3.9213132e-03
  1.0231078e+00   8.8257669e-04
  1.1393268e-01   2.7545211e-03
  1.5313934e-01   1.5487639e-03
 -5.5429381e-03   2.0981436e-03
 -1.2243484e+00   8.1957743e-04
 -4.7006570e-02   1.5403019e-04
 -1.5058684e+00   1.6488884e-04
  4.6706196e-02   9.2249201e-04
  3.6004928e-03   1.1111525e-03
  7.2862715e-02   6.1697949e-04
 -1.1374028e-02   3.5518620e-03
 -1.2742321e-02   4.7306572e-03
  6.3387156e-03   2.4010160e-03
 -8.1142981e-04   4.9410253e-03
  1.3858196e-01   1.9448955e-04
 -2.8128668e-03   2.0934397e-03
 -9.4650984e-03   1.7678840e-03
 -3.1597590e+00   6.4194010e-06
  6.4740874e-02   3.0404108e-03
  1.4937605e-02   3.4386986e-03
 -1.4945428e-03   9.3258172e-04
  2.8562542e-02   3.5392600e-03
  6.5540881e-03   3.0311542e-03
 -5.7001214e-04   2.5749935e-03
  7.6132710e-06   2.9205976e-03
 -6.2477966e-03   1.5184489e-03
 -6.4568040e-03   1.4118406e-03
  2.5177808e-03   4.1417914e-04
 -8.8912249e-03   4.1708122e-03
 -5.6084390e-03   1.5383353e-03
 -5.9826560e-03   2.5775689e-03
 -1.9790825e-02   3.2227352e-04
  1.3002693e-02   1.7438652e-03
 -1.1890172e-02   3.6470166e-03
  5.9847524e-03   3.5407406e-03
  5.7137161e-03   2.3384620e-03
 -2.2967956e-03   1.5691580e-03
  1.3438067e-02   4.9140556e-03
 -9.5304577e-03   1.5189748e-03
 -2.2171694e-03   4.0088966e-03
 -2.3744209e-02   1.7185925e-03
 -6.9213193e-03   1.3806492e-03
  3.4003204e-03   2.6163966e-03
  1.1601443e-02   1.7677766e-03
 -4.1078988e-02   6.6689285e-04
 -1.7706987e-02   6.1072749e-03
 -2.8588179e-02   3.8737297e-04
 -9.0555245e-01   4.0327248e-04
 -1.1101731e+00   6.8742083e-05
  2.0304276e-02   2.9435116e-04
 -2.7838306e+00   2.5459772e-04
  5.1656371e-01   4.8385115e-04
  6.7192174e-02   1.5716007e-03
 -4.5515060e-01   5.4622993e-05
  2.9498199e-01   2.0327845e-03
  2.8122839e-01   8.6964583e-03
 -1.9877015e-02   2.9312419e-03
 -1.6013866e-02   9.2700630e-04
  1.1727066e-03   2.6246859e-03
 -1.5944995e-02   3.1676698e-03
  5.3672336e-02   6.1911065e-04
 -1.3236100e-02   3.4759077e-03
 -6.4666364e-03   2.4502787e-03
 -4.7958703e-03   2.1625410e-03
  6.6140494e-03   4.3575577e-03
 -5.8331003e-04   9.5456757e-04
 -2.4373808e-03   1.5527945e-03
 -7.5218678e-03   1.4775896e-03
 -2.7215549e-01   8.9165906e-04
 -7.9970611e-03   3.4283758e-03
  2.9348426e-03   8.0858625e-04
  4.8349537e-03   2.6056522e-03
 -1.2541132e-03   1.2067812e-03
 -1.3538730e-01   5.6379824e-04
 -7.3506014e-04   1.0933561e-03
  3.5068609e-02   7.5738208e-04
  4.8137207e-02   8.7372446e-04
 -2.3592773e-03   2.7830352e-03
 -3.4039000e-03   1.4340031e-03
 -4.1205883e-03   5.3464714e-04
 -1.7719744e-02   2.8386754e-03
  7.2542153e-02   5.7247523e-03
  6.1754491e-02   3.2380433e-03
 -1.6156599e-02   4.9143611e-03
 -1.1540709e-02   2.0037403e-03
 -2.1739763e-03   5.0814245e-03
 -8.3108610e-03   2.9029984e-03
  2.4434812e-02   1.0739915e-03
 -2.8797016e-02   3.4424067e-03
 -4.4389865e-03   1.3627828e-03
 -8.5988874e-03   1.6412354e-03
  1.1824338e-02   2.7617945e-03
 -2.3890762e-03   2.1668824e-03
  7.2367247e-03   1.6249202e-03
 -8.3711057e-04   2.9376962e-03
  5.3677969e-03   2.7434113e-03
  2.8861365e-01   1.1965587e-03
 -1.9837545e-01   1.2291964e-03
  6.1737713e-03   2.0524790e-03
  9.5342230e-03   1.4242585e-03
  7.0440555e-03   2.5690156e-03
 -1.5423051e-02   2.1937455e-03
 -1.7552490e-03   1.1447740e-03
 -7.1740774e-03   2.6376136e-03
 -5.7635847e-03   1.1345124e-03
 -1.5248347e-02   4.5958422e-03
  9.1898264e-03   2.2084261e-03
  7.9486389e-03   5.3847050e-03
  1.0009691e-02   1.3381710e-03
  9.3415463e-03   4.1679684e-03
  1.8184670e-03   4.2741895e-03
  5.8279335e-03   1.3537680e-03
 -7.1354080e-03   9.8646688e-04
  1.1539855e-03   1.8882145e-03
  2.1179816e-02   3.4597169e-03
 -2.1065768e-02   2.2779554e-03
 -1.3740963e-02   2.6753226e-03
 -2.6632814e-02   2.9447847e-03
  1.5336606e-03   1.1518259e-03
  5.5164886e-03   1.6318155e-03
 -2.6716322e-02   1.3090923e-03
 -1.7815479e-04   2.1849726e-03
 -2.6860561e+00   2.5618172e-04
 -3.4881963e-03   3.1215856e-03
  1.2814563e-02   4.5690688e-04
  6.4116884e-03   5.3588683e-03
 -3.1374145e-02   2.3220247e-03
 -1.9897647e-02   2.1364421e-03
  1.0536823e-02   2.3103342e-03
  3.9581205e-03   2.2951644e-03
  1.2923741e-02   3.5378269e-03
  3.3145002e-01   1.8094941e-04
 -1.2717688e-02   3.0790959e-03
  1.9655903e-03   5.4089283e-04
 -1.5638673e-01   1.6520605e-04
  3.1406090e-02   9.4160909e-04
 -2.7070034e-01   1.4041578e-03
 -2.2313653e-03   2.4201127e-03
 -1.1650196e-01   5.8914238e-04
  3.3371169e-02   1.4296883e-03
 -2.2191206e-02   6.8003335e-04
  1.9624760e+00   5.4228909e-05
  1.8707462e-02   1.0446800e-03
  1.0800520e-03   3.3964468e-03
 -5.4896129e-03   2.1926856e-03
  2.2933513e-03   4.9947542e-03
 -1.2841484e-03   2.0840121e-03
  4.8429854e-03   2.2197005e-03
  5.2459002e-03   2.3633474e-03
 -1.2024052e-02   4.1799666e-03
  2.4477921e-03   3.3003641e-03
  8.8370489e-03   1.3535055e-03
 -5.4963339e-02   4.1663076e-04
  4.0283580e-03   2.8018535e-03
  2.8562300e-02   8.5925602e-04
  2.1302767e-02   4.5473049e-03
  2.5974048e-02   1.9467971e-03
  5.8509887e-04   3.3854921e-03
  4.2209709e-03   1.0509429e-03
  7.2291501e-02   7.3279964e-04
  4.3663518e-03   2.7239448e-03
 -4.4622677e-03   3.6396470e-03
  1.0678113e-01   1.4270124e-03
  1.6311094e-02   2.8970232e-03
 -5.3156712e-03   2.2394380e-03
 -2.2578733e-03   3.7239222e-03
 -8.1324740e-04   4.8818882e-03
 -9.4669601e-03   4.3685180e-03
 -6.4734682e-03   3.9135171e-03
 -1.7194469e-03   1.0387744e-03
  6.5440475e-03   1.6327809e-03
 -4.2999573e-03   5.3311686e-04
  5.6015747e-03   1.5846428e-03
 -1.7964998e-03   1.1048247e-03
 -1.4260551e-03   3.3753400e-03
 -3.3317059e-03   3.4996984e-03
 -5.8785807e-03   3.3649560e-03
 -5.4666167e-03   1.3497043e-03
 -9.7675234e-02   2.3272736e-05
  1.2250744e+00   7.5925083e-05
 -6.3815057e-01   8.2436301e-05
  5.3002086e-02   2.5595209e-04
 -1.7071618e-01   8.3786232e-05
  3.8049471e-01   2.6936931e-04
  6.7557734e-01   4.1536987e-04
  6.2928386e-02   8.1722646e-06
  6.6533417e-01   3.4306420e-04
  5.6579983e-04   7.9437930e-05
  5.9515089e-01   1.2632519e-03
  3.5186338e-03   5.7057763e-04
  1.3042323e-01   1.8956347e-03
 -2.0425908e-01   9.1604673e-04
  6.8871260e-01   4.4680957e-04
  3.4045354e-01   2.5728359e-03
  1.5667813e-01   4.1998865e-04
  9.2186602e-03   6.7448057e-04
  1.2087855e+00   7.9485984e-04
 -3.3846978e-02   2.7808431e-04
  6.3360341e-02   4.3557124e-04
 -8.4571481e-01   1.5872146e-04
  4.0152916e-01   1.0798388e-03
  2.9775724e-02   6.8833400e-04
  3.4152266e-01   5.2670401e-04
 -5.9054471e-03   1.1455968e-03
  7.7087805e-02   3.8257131e-04
  2.9050484e-01   5.6856463e-04
  4.4647878e-01   1.4597553e-04
 -8.5280925e-02   1.0673782e-04
  3.8041773e-01   1.7003426e-03
  2.5656563e-01   2.4709902e-03
  1.1857527e+00   2.0766601e-03
 -2.1457329e-02   8.3553640e-04
  2.5403669e-02   1.1371077e-03
  3.2268506e-02   1.1886703e-03
 -3.4455925e-03   9.2800776e-04
  1.1821479e-02   2.2162164e-03
  6.1563444e-01   3.0461054e-03
  6.4594790e-02   4.0750070e-03
  2.0102306e-01   2.3529448e-03
  1.1948321e-04   3.5043680e-03
 -3.5200247e-01   7.5362244e-04
 -2.8918812e-01   9.8733348e-04
  7.7779007e-01   1.3042081e-04
  1.2460636e+00   2.2699045e-05
  8.3439410e-01   4.9568926e-06
  1.8998459e-01   1.2513304e-04
 -9.2053920e-01   4.8715323e-05
 -4.1920614e-01   2.0037321e-04
 -1.1701429e+00   1.8410965e-04
  4.8373321e-01   1.0607840e-05
  3.4245613e-01   7.7927914e-05
 -7.2603273e-01   3.7372121e-04
 -2.1692376e+00   4.4895051e-04
  4.8215026e-03   7.9408952e-04
 -6.1884262e-03   1.6117804e-03
 -2.4402757e-01   2.6550479e-04
 -2.5484822e+00   1.0004141e-04
 -1.0195557e+00   2.1547356e-03
 -9.5024788e-01   5.3079653e-05
 -7.8611141e-01   2.3150846e-04
 -8.6625028e-01   1.4851349e-04
 -3.7043352e-02   1.3423523e-04
 -8.6367138e-02   8.1514980e-04
  1.2332712e+00   8.7675442e-05
 -7.8806227e-01   1.8357916e-04
 -5.5212237e-02   3.2430812e-04
 -2.4661965e+00   3.7946503e-04
 -5.1260877e-01   1.4495315e-03
  1.2344295e+00   1.9608345e-04
 -7.8328867e-03   7.8332238e-04
  2.4718571e-01   1.5878015e-04
 -4.2862016e-01   5.2759115e-05
 -8.3934646e-03   1.1145030e-03
 -9.8276734e-01   8.7094388e-04
 -5.5998123e-01   1.2209042e-03
  2.9652348e-01   7.8761537e-04
 -7.5478637e-01   9.2307909e-04
  3.7522054e-01   3.3215742e-04
 -6.2490506e-03   5.9926609e-04
 -4.5376444e-01   3.2539718e-04
 -2.9307550e-01   2.9961432e-03
 -1.0184990e-03   2.7118742e-03
 -2.5868553e-03   2.0946700e-03
 -6.4874217e-03   2.4606357e-03
  1.0830472e-01   1.8182609e-03
  1.7804849e-01   1.2087554e-03
 -4.6288548e-03   3.8048343e-04
 -3.2695863e-02   8.0504402e-04
  2.8354190e-03   5.4868025e-04
 -3.9542478e-02   7.6135888e-04
 -2.8806005e-02   4.7554987e-04
  1.2547451e-02   3.2456202e-04
 -2.8771097e-03   1.1974354e-03
  6.1013559e-03   9.9369313e-04
 -1.2313585e-02   1.5808067e-04
 -2.8512638e-02   3.6428493e-04
 -1.1940181e-03   3.3928547e-03
  4.8811473e-03   1.2738218e-03
  2.1415048e-03   2.1489838e-03
  1.2030693e-02   1.2799070e-03
  4.8080655e-03   2.5977276e-03
 -3.3413963e-03   1.1385111e-03
 -6.6402191e-03   1.9466061e-03
  2.3250567e-02   9.8361319e-04
  2.3475274e-02   1.5444731e-03
 -2.8862167e-02   1.2789823e-03
 -8.8686772e-02   8.2450459e-04
  8.5079102e-03   3.0042494e-03
 -3.7275832e-02   8.1503112e-04
 -2.1720370e-03   1.0490223e-03
 -7.6556427e-04   7.6268008e-04
  3.8444956e-03   2.9509885e-03
  3.0218242e-02   2.2341793e-03
 -1.4684718e-02   5.2901194e-03
 -5.0922809e-03   6.6745019e-04
  1.7964232e-03   2.2461605e-03
 -4.3043593e-04   2.3721135e-03
 -1.1548242e-02   2.3728784e-03
  1.2421729e-03   2.9017946e-03
  6.5124623e-04   3.0831827e-03
 -4.2223283e-03   1.3848479e-03
 -4.1453098e-04   7.4323622e-04
 -6.9274469e-03   2.4778452e-03
 -1.0484241e-02   1.3056553e-03
 -5.6430525e-03   2.0188158e-03
  3.0755624e-03   2.8953701e-03
 -3.6088848e-03   1.8571427e-03
  1.2124583e-02   6.4805744e-04
 -4.5790565e-03   1.9857378e-03
  8.8889711e-03   2.7332986e-03
  2.1327725e-01   2.4485029e-04
 -1.9865599e-01   3.0159645e-05
 -1.7574227e-01   9.3065006e-05
  2.6686735e-02   3.5090727e-04
 -9.0584263e-02   1.3980723e-04
  1.0772669e-02   6.0498697e-04
 -4.5520729e-01   8.0295093e-04
 -3.3045462e-01   2.4526767e-04
 -2.4709195e-01   3.0515212e-04
  1.2760188e-01   1.7916790e-03
  7.9870142e-02   3.5710281e-03
 -1.3084701e-02   1.2429886e-03
  4.3075688e-02   1.9969456e-04
 -7.5902529e-02   9.4441319e-04
  8.1369445e-02   2.7118640e-03
 -8.9386653e-04   3.3634275e-03
  2.5375074e-01   1.2092709e-03
  1.8601984e-01   1.0806260e-03
 -8.5091228e-03   7.9694163e-04
  3.4864986e-01   1.5483012e-03
  8.3274573e-02   2.0307943e-03
  5.4229808e-01   6.3132384e-04
  2.0836017e-01   5.9511530e-04
  3.3928198e-03   1.8723669e-03
  1.4926602e-01   1.2804836e-03
  1.3547052e-01   1.5479261e-03
  1.6539952e-01   8.3925878e-04
  5.0313301e-02   6.3733378e-04
  4.2760473e-02   5.4741139e-04
 -2.8828719e-01   1.0194739e-03
  1.1957617e-02   1.6741267e-03
  1.0596667e-01   9.4199838e-04
 -6.1923801e-04   1.7521712e-03
  1.0515826e-02   2.0264143e-03
  2.2809343e-02   6.4327772e-04
  4.1671675e-02   4.5562093e-04
 -2.2862045e-04   4.3652454e-04
 -1.1229489e-01   9.8740647e-04
  1.0836852e-03   1.6743551e-03
  1.4971468e-02   4.5636445e-03
  7.2529674e-02   5.2407007e-03
  1.1237207e-02   3.6248616e-03
  6.0317223e-03   1.9809890e-03
 -2.1371438e-01   2.8099320e-03
 -5.5782008e-01   6.1214593e-04
 -7.5811766e-02   4.6044102e-04
  1.5569906e+00   1.8012515e-04
  2.7497336e-02   3.6889163e-04
  2.4497008e-03   2.5842924e-04
 -5.9579514e-02   5.2260404e-04
  1.1473369e-01   9.4520045e-04
 -3.5953093e-01   3.8591479e-05
 -1.7726369e-01   3.3645547e-04
  5.2016054e-04   3.4193972e-03
 -7.2344035e-02   1.5703066e-03
  8.7495781e-03   2.4856089e-03
  7.4154339e-03   2.3070173e-03
  4.2230538e-03   4.1803271e-03
 -6.5492066e-03   3.6291443e-03
  9.9797978e-04   1.9270531e-03
 -1.9418295e-01   2.1931541e-03
 -7.1614683e-02   6.9736649e-04
 -1.0248055e-02   3.5668863e-03
 -2.9061956e-02   8.6267194e-04
 -4.2773751e-03   2.1717870e-03
  8.6468291e-01   6.2148686e-04
 -1.4476928e-01   1.5583189e-03
 -1.6871896e-02   1.1421541e-03
  5.0886427e-03   2.6910715e-03
  5.5395585e-02   1.1092627e-03
 -1.2644261e-01   2.9391877e-03
 -7.6782942e-02   2.7651470e-03
 -1.5247874e-01   4.0553088e-04
  3.8116553e-04   1.0500314e-03
  8.5003572e-03   2.0351622e-03
 -7.4722792e-04   1.6756095e-03
  2.7699037e-03   2.9200437e-03
  7.2501935e-03   2.3929710e-03
  2.0267447e-03   3.9872336e-03
  1.0832509e-01   1.0390650e-03
 -6.6496893e-03   3.0470379e-03
  4.6192920e-03   3.5624353e-03
 -2.4145389e-02   3.6175817e-03
  3.8276003e-03   8.9561142e-04
  2.1936500e-04   1.2753118e-03
 -9.7615663e-03   2.7356581e-03
 -1.7769324e-02   2.9073847e-03
 -5.5263070e-03   8.1230426e-04
 -6.7291245e-02   1.0329686e-03
  1.5286092e-02   3.2478361e-04
  4.4004035e-01   4.9170241e-04
  1.4228692e-02   1.2199450e-03
  7.6169759e-02   6.2465225e-04
  1.1631516e+00   4.6069612e-04
 -1.4964408e-01   8.7833789e-04
  2.7913967e-01   2.4163161e-04
  1.2160272e-01   3.6369462e-03
 -1.1589854e-02   2.8927296e-03
  1.4428568e-02   2.0608755e-03
  1.7954249e-04   1.2169284e-03
 -1.7496098e-02   1.3733405e-03
 -1.0948571e-03   3.8500614e-03
 -1.6557637e-03   2.8698433e-03
 -1.3631698e-03   1.9521835e-03
 -9.3108024e-03   6.3743419e-04
  6.0992842e-03   2.4392123e-03
  2.3722075e-02   3.4013488e-03
 -2.8918903e-02   1.3304173e-03
  3.5423748e-02   1.7024077e-03
  8.7952614e-03   2.8807847e-04
  4.7154501e-02   2.4406812e-03
  4.7375478e-02   3.5407278e-03
 -6.8399929e-03   3.3952470e-03
 -4.9527427e-03   8.2334701e-04
  7.8547224e-02   1.7189892e-04
 -6.1239707e-03   4.2910352e-03
  3.4723569e-02   1.4826445e-03
 -2.8931417e-03   6.9897104e-04
 -4.4303942e-03   1.5785130e-03
  5.8725365e-03   2.4647673e-03
  6.1152037e-03   1.9114534e-03
  6.3374946e-03   3.3748115e-03
 -6.7198317e-04   1.7148060e-03
  2.9528307e-02   2.1739469e-03
 -1.5305724e-02   1.2582386e-03
  3.9864829e-01   3.3028438e-04
 -1.6513315e-03   2.5640491e-03
 -1.0278882e-02   2.9208604e-03
  2.6995981e-02   1.4799189e-04
 -8.2755172e-01   3.8723999e-03
 -5.4189074e-03   2.0228643e-03
  8.0357669e-03   1.1772481e-03
  1.0237253e+00   4.6753405e-05
  9.1779846e-01   4.4210668e-05
  5.2283126e-01   6.3080653e-05
  4.6302345e-01   3.9202256e-05
  5.8405465e-01   1.3516779e-04
  1.5686016e-01   7.6712713e-05
  5.6300801e-01   8.0172023e-05
  1.1873749e+00   4.3787135e-05
  6.6515994e-01   9.1803580e-05
  6.5375274e-01   1.7666111e-04
  9.3415372e-02   1.7217580e-03
 -1.8077853e-01   2.0767450e-04
 -1.2610414e-02   9.6687843e-04
  6.4619112e-01   7.7760124e-05
  1.5131053e+00   2.9492332e-04
  7.3454267e-01   4.1799748e-04
  6.8092251e-01   1.4027637e-04
  2.5238037e+00   4.1422236e-04
 -1.0249696e-01   7.6398428e-04
 -6.7026308e-03   4.0687827e-04
  9.0748334e-01   1.2993176e-03
 -9.1649508e-01   2.5290044e-04
  9.6897888e-01   5.2465883e-04
  9.6278262e-01   1.5660637e-04
  2.2289264e-01   8.5388128e-05
  3.4602600e-01   1.4400695e-03
 -3.8552985e-01   3.0739832e-04
  4.9358374e-03   4.2134876e-04
 -9.1910845e-01   1.5254119e-04
  2.8312835e-01   4.9814343e-04
 -3.0439597e-01   1.7075073e-04
 -1.1442655e-02   1.3189811e-03
  9.4836324e-02   1.8543667e-03
  2.3674232e-01   6.6645953e-05
  8.9505535e-01   2.0587298e-03
  3.2894138e-01   4.2846805e-04
  1.9175826e-01   1.0683550e-03
  1.8964505e-02   7.3768251e-04
  3.4468293e-02   4.0982021e-03
  2.6887024e-02   3.4423084e-03
  3.5991460e-01   1.8322301e-03
 -2.8876965e-03   3.6654698e-03
  1.1892297e-02   8.4641221e-04
 -9.7231627e-02   1.1408047e-03
 -5.6634319e-01   5.2333344e-04
 -2.2002454e-01   6.0588605e-05
  5.5778354e-01   1.0525340e-03
  1.3959087e-02   4.3145212e-04
  2.2823213e-01   5.7914713e-04
 -8.2194107e-03   1.9420261e-04
 -2.8287342e-03   2.2271313e-03
 -2.0377502e+00   3.2293011e-04
  3.4833007e-05   1.7065841e-03
  1.0667480e-02   3.8374278e-03
  4.4108885e-03   2.5233126e-03
  8.3013931e-03   8.4956276e-04
  5.2101668e-03   1.8813203e-03