
***************************************************************
*                 Welcome to use GPUMD                        *
*    (Graphics Processing Units Molecular Dynamics)           *
*                     Version 3.7                             *
*              This is the nep executable                     *
***************************************************************


---------------------------------------------------------------
GPU information:
---------------------------------------------------------------

number of GPUs = 1
Device id:                   0
    Device name:             NVIDIA GeForce RTX 3070
    Compute capability:      8.6
    Amount of global memory: 7.79523 GB
    Number of SMs:           46

---------------------------------------------------------------
Started running nep.
---------------------------------------------------------------


---------------------------------------------------------------
Started reading nep.in.
---------------------------------------------------------------

Input or default parameters:
    (default) train_mode = potential.
    (default) calculation mode = train.
    (input)   use NEP version 4.
    (input)   number of atom types = 2.
        (default) type 0 (Cu with Z = 29) has force weight of 1.
        (default) type 1 (Se with Z = 34) has force weight of 1.
    (default) will not add the ZBL potential.
    (input)   radial cutoff = 7 A.
    (input)   angular cutoff = 5 A.
    (input)   n_max_radial = 8.
    (input)   n_max_angular = 6.
    (input)   basis_size_radial = 12.
    (input)   basis_size_angular = 12.
    (input)   l_max_3body = 4.
    (input)   l_max_4body = 2.
    (input)   l_max_5body = 0.
    (input)   number of neurons = 50.
    (default) lambda_1 = -1.
    (default) lambda_2 = -1.
    (input)   lambda_e = 1.
    (input)   lambda_f = 1.
    (input)   lambda_v = 0.2.
    (default) lambda_shear = 1.
    (default) force_delta = 0.
    (input)   batch size = 1000.
    (input)   population size = 50.
    (input)   maximum number of generations = 100000.
Some calculated parameters:
    number of radial descriptor components = 9.
    number of angular descriptor components = 35.
    total number of descriptor components = 44.
    NN architecture = 44-50-1.
    number of NN parameters to be optimized = 4601.
    number of descriptor parameters to be optimized = 832.
    total number of parameters to be optimized = 5433.

---------------------------------------------------------------
Finished reading nep.in.
---------------------------------------------------------------


---------------------------------------------------------------
Started reading train.xyz.
---------------------------------------------------------------

Number of configurations = 510.
Number of devices = 1
Number of batches = 1
Hello, I changed the batch_size from 1000 to 510.

Batch 0:
Number of configurations = 510.

---------------------------------------------------------------
Constructing train_set in device  0.
Total number of atoms = 187420.
Number of atoms in the largest configuration = 596.
Number of configurations having virial = 510.
Radial descriptor with a cutoff of 7 A:
    Minimum number of neighbors for one atom = 61.
    Maximum number of neighbors for one atom = 100.
Angular descriptor with a cutoff of 5 A:
    Minimum number of neighbors for one atom = 18.
    Maximum number of neighbors for one atom = 44.
---------------------------------------------------------------


---------------------------------------------------------------
Started reading test.xyz.
---------------------------------------------------------------

Number of configurations = 210.

---------------------------------------------------------------
Constructing test_set in device  0.
Total number of atoms = 73840.
Number of atoms in the largest configuration = 596.
Number of configurations having virial = 210.
Radial descriptor with a cutoff of 7 A:
    Minimum number of neighbors for one atom = 61.
    Maximum number of neighbors for one atom = 95.
Angular descriptor with a cutoff of 5 A:
    Minimum number of neighbors for one atom = 18.
    Maximum number of neighbors for one atom = 40.
---------------------------------------------------------------


---------------------------------------------------------------
Time used for initialization = 0.691079 s.
---------------------------------------------------------------


---------------------------------------------------------------
Started training.
---------------------------------------------------------------

Step    Total-Loss L1Reg-Loss L2Reg-Loss RMSE-E-Train RMSE-F-Train RMSE-V-Train RMSE-E-Test  RMSE-F-Test  RMSE-V-Test  
100     0.33833    0.03307    0.04056    0.01621      0.21601      0.16243      0.01971      0.20207      0.20477      
200     0.29644    0.03193    0.03972    0.01087      0.19060      0.11657      0.01037      0.17842      0.12723      
300     0.29306    0.03442    0.04278    0.00729      0.18091      0.13836      0.00756      0.17296      0.08508      
400     0.29387    0.03677    0.04588    0.00873      0.18345      0.09521      0.01084      0.18584      0.12111      
500     0.30184    0.03948    0.04947    0.01186      0.18008      0.10468      0.01274      0.17460      0.09071      
600     0.28584    0.03894    0.04896    0.00833      0.16985      0.09883      0.01131      0.16490      0.12602      
700     0.29483    0.04172    0.05245    0.01266      0.16397      0.12011      0.01461      0.15718      0.15323      
800     0.29007    0.04236    0.05351    0.01412      0.15843      0.10825      0.01317      0.14521      0.08480      
900     0.28888    0.04347    0.05510    0.00816      0.16285      0.09650      0.00856      0.16099      0.05023      
1000    0.28361    0.04412    0.05579    0.00867      0.15652      0.09256      0.00721      0.14993      0.09400      
1100    0.30218    0.04801    0.06087    0.01753      0.15944      0.08172      0.01045      0.15191      0.08571      
1200    0.27386    0.04505    0.05680    0.01031      0.14682      0.07440      0.00941      0.13917      0.08186      
1300    0.28706    0.04803    0.06073    0.01283      0.15436      0.05552      0.01581      0.15155      0.06377      
1400    0.29307    0.05005    0.06332    0.00554      0.15987      0.07149      0.00591      0.16466      0.05262      
1500    0.29611    0.05164    0.06546    0.01180      0.15415      0.06536      0.01104      0.14495      0.07923      
1600    0.30008    0.05330    0.06793    0.01061      0.15125      0.08498      0.01109      0.14338      0.09275      
1700    0.29705    0.05381    0.06823    0.01262      0.15135      0.05519      0.00817      0.15317      0.06578      
1800    0.30415    0.05552    0.07062    0.01129      0.15658      0.05076      0.01017      0.15442      0.04016      
1900    0.27693    0.05134    0.06505    0.00658      0.14470      0.04632      0.00786      0.14806      0.04854      
2000    0.28279    0.05336    0.06750    0.01145      0.13933      0.05578      0.01049      0.13954      0.04276      
2100    0.29952    0.05706    0.07221    0.00861      0.15064      0.05502      0.00800      0.15211      0.04204      
2200    0.28911    0.05585    0.07055    0.00747      0.14398      0.05629      0.00896      0.13973      0.06351      
2300    0.28942    0.05631    0.07144    0.00659      0.14290      0.06088      0.00687      0.14137      0.04606      
2400    0.28976    0.05705    0.07248    0.00936      0.14134      0.04763      0.00959      0.13676      0.05053      
2500    0.28804    0.05716    0.07292    0.00735      0.14097      0.04817      0.00784      0.13564      0.05890      
2600    0.28958    0.05839    0.07426    0.00506      0.14149      0.05193      0.00541      0.13918      0.06458      
2700    0.29638    0.06018    0.07654    0.00866      0.14440      0.03291      0.00526      0.14231      0.02899      
2800    0.27713    0.05684    0.07233    0.00606      0.13183      0.05032      0.00684      0.12527      0.02909      
2900    0.27986    0.05793    0.07366    0.00704      0.13325      0.03992      0.00717      0.12761      0.02846      
3000    0.28011    0.05826    0.07407    0.00600      0.13117      0.05304      0.00718      0.13176      0.04797      
3100    0.27583    0.05792    0.07357    0.00485      0.13155      0.03974      0.00530      0.13071      0.04494      
3200    0.28435    0.06019    0.07655    0.00537      0.13570      0.03262      0.00574      0.12974      0.03198      
3300    0.28723    0.06126    0.07785    0.01122      0.13072      0.03087      0.00603      0.13105      0.02867      
3400    0.28872    0.06182    0.07877    0.00600      0.13828      0.01931      0.00707      0.13720      0.02269      
3500    0.27643    0.05967    0.07603    0.00489      0.12955      0.03147      0.00547      0.12492      0.02748      
3600    0.27489    0.05941    0.07588    0.00673      0.12718      0.02848      0.00691      0.12259      0.02664      
3700    0.28116    0.06108    0.07813    0.00535      0.13070      0.02947      0.00564      0.13212      0.03084      
3800    0.28274    0.06163    0.07895    0.00562      0.12908      0.03727      0.00476      0.12257      0.03904      
3900    0.27028    0.05924    0.07578    0.00754      0.12239      0.02666      0.00629      0.11970      0.02878      
4000    0.26887    0.05938    0.07599    0.00609      0.11995      0.03732      0.00644      0.11730      0.04379      
4100    0.27267    0.06035    0.07731    0.00481      0.12061      0.04797      0.00511      0.11838      0.02987      
4200    0.25720    0.05713    0.07334    0.00553      0.11364      0.03775      0.00616      0.11093      0.03983      
4300    0.26746    0.05960    0.07648    0.00683      0.11761      0.03472      0.00703      0.10983      0.03050      
4400    0.25757    0.05748    0.07393    0.00569      0.11407      0.03202      0.00566      0.11032      0.02489      
4500    0.26160    0.05854    0.07539    0.00412      0.11662      0.03463      0.00445      0.11481      0.03257      
4600    0.26977    0.06075    0.07809    0.00427      0.11430      0.06181      0.00446      0.10915      0.04741      
4700    0.24801    0.05619    0.07215    0.00377      0.11066      0.02619      0.00513      0.10841      0.02625      
4800    0.25151    0.05714    0.07350    0.00470      0.10948      0.03342      0.00562      0.10645      0.03465      
4900    0.25454    0.05814    0.07476    0.00722      0.10977      0.02323      0.00507      0.10445      0.02098      
5000    0.26123    0.06003    0.07701    0.00530      0.11245      0.03216      0.00496      0.11021      0.02292      
5100    0.26317    0.06064    0.07802    0.00489      0.11438      0.02619      0.00402      0.10872      0.01880      
5200    0.25714    0.05950    0.07663    0.00520      0.10809      0.03866      0.00615      0.10265      0.05055      
5300    0.25715    0.05972    0.07681    0.00612      0.10916      0.02673      0.00588      0.10463      0.02433      
5400    0.25532    0.05961    0.07677    0.00506      0.10758      0.03148      0.00498      0.10449      0.02902      
5500    0.25189    0.05906    0.07609    0.00454      0.10584      0.03184      0.00454      0.10171      0.02810      
5600    0.25328    0.05957    0.07677    0.00553      0.10489      0.03261      0.00545      0.10268      0.03651      
5700    0.25372    0.05999    0.07738    0.00570      0.10513      0.02758      0.00698      0.10148      0.03365      
5800    0.26029    0.06170    0.07984    0.00729      0.10569      0.02888      0.00701      0.10119      0.02466      
5900    0.24840    0.05895    0.07636    0.00406      0.10369      0.02669      0.00484      0.10073      0.03045      
6000    0.25118    0.05979    0.07747    0.00545      0.10107      0.03699      0.00536      0.09762      0.02979      
6100    0.25541    0.06105    0.07905    0.00386      0.10650      0.02472      0.00398      0.10227      0.02399      
6200    0.24980    0.05994    0.07767    0.00441      0.10298      0.02393      0.00540      0.10246      0.02486      
6300    0.25242    0.06088    0.07883    0.00520      0.10355      0.01982      0.00637      0.09932      0.02056      
6400    0.25203    0.06093    0.07903    0.00337      0.10412      0.02285      0.00427      0.10228      0.01965      
6500    0.25221    0.06121    0.07943    0.00446      0.10131      0.02896      0.00553      0.09973      0.02351      
6600    0.25083    0.06102    0.07913    0.00413      0.10128      0.02636      0.00429      0.09856      0.02869      
6700    0.25505    0.06230    0.08066    0.00570      0.10245      0.01969      0.00529      0.09964      0.01924      
6800    0.25069    0.06135    0.07939    0.00371      0.10019      0.03021      0.00400      0.09773      0.02647      
6900    0.24914    0.06093    0.07893    0.00535      0.09777      0.03080      0.00584      0.09680      0.02784      
7000    0.24940    0.06116    0.07911    0.00429      0.10032      0.02263      0.00575      0.10021      0.02605      
7100    0.25242    0.06203    0.08010    0.00381      0.09977      0.03350      0.00299      0.09602      0.03466      
7200    0.25022    0.06157    0.07959    0.00386      0.10044      0.02374      0.00462      0.09562      0.02167      
7300    0.24880    0.06134    0.07921    0.00482      0.09723      0.03102      0.00576      0.09512      0.02580      
7400    0.24943    0.06159    0.07961    0.00451      0.09821      0.02752      0.00522      0.09560      0.03373      
7500    0.24346    0.06014    0.07803    0.00453      0.09672      0.02017      0.00510      0.09295      0.02199      
7600    0.24444    0.06051    0.07839    0.00453      0.09684      0.02086      0.00398      0.09378      0.02152      
7700    0.24404    0.06055    0.07847    0.00316      0.09750      0.02184      0.00303      0.09450      0.02046      
7800    0.24025    0.05979    0.07760    0.00288      0.09561      0.02182      0.00319      0.09317      0.02360      
7900    0.24277    0.06059    0.07864    0.00360      0.09629      0.01829      0.00468      0.09351      0.01989      
8000    0.24658    0.06142    0.07991    0.00321      0.09599      0.03026      0.00321      0.09305      0.03172      
8100    0.24022    0.06011    0.07792    0.00322      0.09556      0.01703      0.00430      0.09403      0.01815      
8200    0.24476    0.06138    0.07946    0.00320      0.09519      0.02769      0.00354      0.09063      0.01983      
8300    0.24669    0.06191    0.08052    0.00466      0.09552      0.02040      0.00454      0.09252      0.01923      
8400    0.23932    0.06006    0.07817    0.00324      0.09382      0.02016      0.00340      0.09215      0.01980      
8500    0.24450    0.06174    0.08010    0.00303      0.09409      0.02764      0.00331      0.09267      0.02441      
8600    0.24083    0.06070    0.07894    0.00350      0.09347      0.02112      0.00379      0.09125      0.01688      
8700    0.24336    0.06150    0.07992    0.00352      0.09461      0.01907      0.00409      0.09080      0.02195      
8800    0.23939    0.06055    0.07879    0.00340      0.09304      0.01807      0.00331      0.09068      0.01867      
8900    0.24064    0.06094    0.07922    0.00471      0.09218      0.01793      0.00569      0.09071      0.01950      
9000    0.23767    0.06034    0.07835    0.00362      0.09141      0.01976      0.00411      0.08975      0.02102      
9100    0.24010    0.06085    0.07932    0.00419      0.09211      0.01816      0.00491      0.09082      0.01954      
9200    0.23819    0.06054    0.07871    0.00346      0.09246      0.01505      0.00423      0.08935      0.01639      
9300    0.23961    0.06101    0.07938    0.00267      0.09193      0.02312      0.00289      0.08913      0.02363      
9400    0.24190    0.06181    0.08047    0.00397      0.09058      0.02533      0.00398      0.08987      0.02804      
9500    0.23924    0.06122    0.07960    0.00379      0.08957      0.02529      0.00420      0.08752      0.02357      
9600    0.23743    0.06074    0.07913    0.00246      0.09127      0.01916      0.00315      0.08779      0.02203      
9700    0.23393    0.06000    0.07809    0.00411      0.08867      0.01530      0.00393      0.08719      0.01629      
9800    0.23715    0.06081    0.07945    0.00384      0.08998      0.01536      0.00462      0.08715      0.01649      
9900    0.23892    0.06132    0.08020    0.00262      0.09132      0.01731      0.00328      0.08881      0.01980      
10000   0.24268    0.06239    0.08172    0.00460      0.09001      0.01980      0.00511      0.08751      0.01579      
10100   0.24087    0.06205    0.08118    0.00319      0.09051      0.01974      0.00388      0.08793      0.02024      
10200   0.23927    0.06167    0.08078    0.00342      0.09008      0.01659      0.00359      0.08607      0.01772      
10300   0.23547    0.06081    0.07968    0.00286      0.08823      0.01947      0.00366      0.08580      0.01855      
10400   0.23993    0.06194    0.08133    0.00294      0.08998      0.01872      0.00270      0.08753      0.01943      
10500   0.23715    0.06137    0.08047    0.00294      0.08844      0.01964      0.00347      0.08514      0.01640      
10600   0.23961    0.06200    0.08138    0.00379      0.08886      0.01792      0.00361      0.08860      0.02143      
10700   0.24145    0.06257    0.08244    0.00336      0.08856      0.02259      0.00463      0.08593      0.01969      
10800   0.24277    0.06303    0.08293    0.00233      0.09105      0.01716      0.00260      0.08925      0.01885      
10900   0.23675    0.06154    0.08077    0.00511      0.08619      0.01571      0.00416      0.08517      0.01742      
11000   0.23645    0.06146    0.08063    0.00351      0.08742      0.01719      0.00338      0.08449      0.01756      
11100   0.24058    0.06252    0.08196    0.00350      0.08813      0.02234      0.00462      0.08530      0.01616      
11200   0.23620    0.06142    0.08051    0.00260      0.08823      0.01721      0.00333      0.08621      0.01596      
11300   0.24111    0.06265    0.08219    0.00345      0.08790      0.02460      0.00440      0.08580      0.02666      
11400   0.23861    0.06212    0.08132    0.00393      0.08781      0.01718      0.00484      0.08486      0.02111      
11500   0.24075    0.06278    0.08238    0.00317      0.08877      0.01820      0.00315      0.08645      0.02055      
11600   0.23536    0.06149    0.08052    0.00299      0.08706      0.01655      0.00378      0.08432      0.01862      
11700   0.23579    0.06158    0.08077    0.00450      0.08568      0.01630      0.00347      0.08320      0.01804      
11800   0.23315    0.06088    0.07984    0.00287      0.08640      0.01580      0.00311      0.08461      0.01726      
11900   0.23554    0.06147    0.08069    0.00412      0.08588      0.01689      0.00337      0.08403      0.01702      
12000   0.23447    0.06137    0.08031    0.00256      0.08651      0.01861      0.00250      0.08528      0.02283      
12100   0.23387    0.06133    0.08001    0.00345      0.08547      0.01803      0.00348      0.08328      0.01696      
12200   0.23559    0.06174    0.08071    0.00338      0.08564      0.02058      0.00366      0.08439      0.02318      
12300   0.22919    0.05999    0.07851    0.00245      0.08476      0.01739      0.00300      0.08255      0.02133      
12400   0.23041    0.06034    0.07900    0.00259      0.08542      0.01531      0.00277      0.08330      0.01847      
12500   0.23786    0.06232    0.08176    0.00342      0.08635      0.02004      0.00272      0.08484      0.02253      
12600   0.23457    0.06158    0.08071    0.00235      0.08674      0.01589      0.00263      0.08419      0.01947      
12700   0.23462    0.06172    0.08086    0.00322      0.08558      0.01621      0.00400      0.08428      0.01774      
12800   0.23641    0.06219    0.08147    0.00331      0.08545      0.01991      0.00417      0.08307      0.02356      
12900   0.23399    0.06154    0.08072    0.00315      0.08527      0.01657      0.00422      0.08397      0.01751      
13000   0.23158    0.06098    0.08004    0.00296      0.08481      0.01397      0.00359      0.08302      0.01512      
13100   0.23340    0.06155    0.08051    0.00261      0.08502      0.01856      0.00307      0.08338      0.01666      
13200   0.22904    0.06040    0.07906    0.00304      0.08313      0.01710      0.00323      0.08174      0.01857      
13300   0.23055    0.06082    0.07959    0.00255      0.08453      0.01531      0.00320      0.08288      0.01703      
13400   0.22952    0.06050    0.07909    0.00315      0.08280      0.01991      0.00279      0.08062      0.02084      
13500   0.23046    0.06070    0.07932    0.00306      0.08428      0.01551      0.00370      0.08169      0.01424      
13600   0.22606    0.05949    0.07774    0.00214      0.08296      0.01861      0.00262      0.08079      0.01988      
13700   0.22955    0.06054    0.07916    0.00308      0.08340      0.01680      0.00338      0.08173      0.01600      
13800   0.23174    0.06120    0.07991    0.00226      0.08360      0.02385      0.00278      0.08162      0.02315      
13900   0.23008    0.06070    0.07939    0.00307      0.08333      0.01790      0.00313      0.08156      0.01856      
14000   0.22859    0.06021    0.07892    0.00229      0.08396      0.01607      0.00269      0.08243      0.01509      
14100   0.22993    0.06062    0.07949    0.00297      0.08334      0.01753      0.00348      0.08160      0.01929      
14200   0.22859    0.06029    0.07898    0.00232      0.08265      0.02171      0.00281      0.08021      0.02051      
14300   0.22892    0.06044    0.07915    0.00276      0.08359      0.01489      0.00308      0.08139      0.01526      
14400   0.23225    0.06122    0.08021    0.00458      0.08335      0.01439      0.00338      0.08162      0.01536      
14500   0.22775    0.06015    0.07871    0.00292      0.08244      0.01761      0.00375      0.07986      0.01530      
14600   0.22491    0.05948    0.07763    0.00289      0.08158      0.01670      0.00323      0.08005      0.01767      
14700   0.22513    0.05956    0.07778    0.00304      0.08159      0.01578      0.00269      0.07939      0.01692      
14800   0.22486    0.05939    0.07756    0.00356      0.08113      0.01609      0.00358      0.07993      0.01552      
14900   0.22491    0.05946    0.07773    0.00273      0.08170      0.01642      0.00355      0.07972      0.01577      
15000   0.22582    0.05967    0.07815    0.00273      0.08242      0.01429      0.00376      0.08101      0.01469      
15100   0.22691    0.06003    0.07857    0.00234      0.08184      0.02072      0.00274      0.08070      0.02231      
15200   0.22575    0.05974    0.07823    0.00293      0.08197      0.01446      0.00309      0.08021      0.01486      
15300   0.22395    0.05925    0.07768    0.00262      0.08118      0.01611      0.00340      0.08040      0.01634      
15400   0.22323    0.05904    0.07732    0.00259      0.08064      0.01818      0.00342      0.07849      0.01821      
15500   0.22176    0.05864    0.07681    0.00239      0.08102      0.01448      0.00306      0.07975      0.01624      
15600   0.22148    0.05852    0.07662    0.00296      0.08051      0.01437      0.00354      0.07938      0.01482      
15700   0.21806    0.05763    0.07528    0.00245      0.07989      0.01405      0.00335      0.07846      0.01436      
15800   0.22064    0.05834    0.07621    0.00273      0.08002      0.01671      0.00285      0.07877      0.01680      
15900   0.22137    0.05853    0.07646    0.00303      0.08034      0.01504      0.00407      0.07908      0.01534      
16000   0.21791    0.05761    0.07532    0.00237      0.07958      0.01516      0.00307      0.07807      0.01382      
16100   0.22025    0.05835    0.07614    0.00287      0.08009      0.01392      0.00239      0.07813      0.01487      
16200   0.22099    0.05847    0.07643    0.00233      0.08087      0.01442      0.00293      0.07887      0.01541      
16300   0.22238    0.05889    0.07700    0.00258      0.08103      0.01440      0.00314      0.08019      0.01546      
16400   0.21852    0.05786    0.07562    0.00249      0.07959      0.01479      0.00298      0.07830      0.01472      
16500   0.21633    0.05731    0.07497    0.00204      0.07934      0.01328      0.00256      0.07772      0.01382      
16600   0.22049    0.05844    0.07643    0.00248      0.08042      0.01355      0.00313      0.07822      0.01289      
16700   0.21862    0.05810    0.07594    0.00273      0.07886      0.01500      0.00359      0.07663      0.01444      
16800   0.21979    0.05842    0.07627    0.00299      0.07882      0.01641      0.00376      0.07716      0.01423      
16900   0.21926    0.05836    0.07613    0.00331      0.07839      0.01531      0.00310      0.07645      0.01534      
17000   0.21979    0.05835    0.07625    0.00253      0.07852      0.02073      0.00316      0.07673      0.01829      
17100   0.21752    0.05768    0.07547    0.00254      0.07915      0.01339      0.00320      0.07716      0.01326      
17200   0.21795    0.05781    0.07569    0.00249      0.07934      0.01316      0.00319      0.07728      0.01343      
17300   0.22042    0.05855    0.07667    0.00277      0.07906      0.01689      0.00325      0.07689      0.01555      
17400   0.21562    0.05732    0.07492    0.00241      0.07823      0.01372      0.00301      0.07689      0.01441      
17500   0.21891    0.05828    0.07614    0.00298      0.07870      0.01404      0.00363      0.07635      0.01323      
17600   0.21718    0.05770    0.07553    0.00301      0.07832      0.01308      0.00360      0.07653      0.01349      
17700   0.21914    0.05823    0.07609    0.00230      0.07907      0.01726      0.00279      0.07759      0.02014      
17800   0.21755    0.05793    0.07557    0.00250      0.07874      0.01399      0.00317      0.07697      0.01434      
17900   0.21522    0.05719    0.07473    0.00216      0.07816      0.01490      0.00270      0.07684      0.01688      
18000   0.21751    0.05785    0.07569    0.00215      0.07844      0.01691      0.00244      0.07732      0.01945      
18100   0.21631    0.05758    0.07534    0.00241      0.07800      0.01492      0.00336      0.07657      0.01595      
18200   0.21757    0.05793    0.07583    0.00314      0.07816      0.01254      0.00320      0.07634      0.01300      
18300   0.21641    0.05762    0.07539    0.00251      0.07814      0.01377      0.00320      0.07639      0.01514      
18400   0.21652    0.05773    0.07553    0.00263      0.07779      0.01416      0.00312      0.07614      0.01471      
18500   0.21677    0.05777    0.07556    0.00232      0.07805      0.01540      0.00292      0.07625      0.01720      
18600   0.21552    0.05723    0.07491    0.00282      0.07803      0.01266      0.00294      0.07643      0.01268      
18700   0.21690    0.05771    0.07564    0.00278      0.07789      0.01442      0.00307      0.07661      0.01532      
18800   0.21439    0.05712    0.07473    0.00248      0.07734      0.01361      0.00312      0.07572      0.01435      
18900   0.21577    0.05745    0.07519    0.00245      0.07768      0.01502      0.00288      0.07644      0.01566      
19000   0.21658    0.05770    0.07539    0.00225      0.07836      0.01440      0.00265      0.07744      0.01583      
19100   0.21581    0.05752    0.07515    0.00313      0.07731      0.01347      0.00298      0.07620      0.01407      
19200   0.21411    0.05714    0.07457    0.00225      0.07732      0.01419      0.00258      0.07609      0.01456      
19300   0.21566    0.05745    0.07514    0.00263      0.07781      0.01314      0.00284      0.07663      0.01363      
19400   0.21645    0.05760    0.07543    0.00233      0.07786      0.01610      0.00271      0.07657      0.01554      
19500   0.21372    0.05694    0.07440    0.00219      0.07752      0.01336      0.00284      0.07624      0.01311      
19600   0.21650    0.05766    0.07549    0.00213      0.07855      0.01338      0.00247      0.07687      0.01366      
19700   0.21560    0.05736    0.07514    0.00195      0.07822      0.01465      0.00209      0.07660      0.01502      
19800   0.21410    0.05691    0.07451    0.00228      0.07773      0.01329      0.00278      0.07616      0.01346      
19900   0.21371    0.05668    0.07428    0.00236      0.07725      0.01577      0.00297      0.07592      0.01638      
20000   0.21252    0.05638    0.07384    0.00211      0.07739      0.01396      0.00261      0.07612      0.01501      
20100   0.21155    0.05604    0.07338    0.00247      0.07710      0.01278      0.00303      0.07538      0.01339      
20200   0.21191    0.05616    0.07349    0.00216      0.07718      0.01462      0.00247      0.07580      0.01474      
20300   0.21072    0.05573    0.07314    0.00247      0.07676      0.01306      0.00270      0.07558      0.01370      
20400   0.21300    0.05635    0.07393    0.00224      0.07779      0.01343      0.00241      0.07636      0.01434      
20500   0.21278    0.05628    0.07382    0.00258      0.07729      0.01409      0.00307      0.07604      0.01442      
20600   0.21402    0.05666    0.07414    0.00274      0.07779      0.01339      0.00330      0.07601      0.01504      
20700   0.21086    0.05591    0.07311    0.00229      0.07703      0.01257      0.00292      0.07560      0.01328      
20800   0.21214    0.05625    0.07357    0.00252      0.07690      0.01453      0.00310      0.07503      0.01553      
20900   0.21222    0.05623    0.07364    0.00214      0.07720      0.01506      0.00258      0.07566      0.01528      
21000   0.21195    0.05603    0.07342    0.00212      0.07767      0.01357      0.00235      0.07600      0.01385      
21100   0.21064    0.05573    0.07302    0.00198      0.07706      0.01430      0.00257      0.07529      0.01660      
21200   0.20912    0.05527    0.07249    0.00236      0.07607      0.01462      0.00252      0.07453      0.01495      
21300   0.21048    0.05566    0.07309    0.00203      0.07696      0.01371      0.00248      0.07543      0.01470      
21400   0.20944    0.05530    0.07259    0.00221      0.07655      0.01391      0.00254      0.07499      0.01353      
21500   0.21027    0.05548    0.07296    0.00239      0.07683      0.01301      0.00268      0.07498      0.01396      
21600   0.20949    0.05529    0.07271    0.00203      0.07666      0.01397      0.00236      0.07476      0.01479      
21700   0.20932    0.05523    0.07253    0.00178      0.07701      0.01381      0.00221      0.07450      0.01429      
21800   0.20916    0.05518    0.07252    0.00201      0.07623      0.01613      0.00244      0.07437      0.01779      
21900   0.20964    0.05528    0.07257    0.00221      0.07681      0.01389      0.00280      0.07562      0.01473      
22000   0.20855    0.05489    0.07220    0.00249      0.07618      0.01399      0.00334      0.07398      0.01524      
22100   0.20940    0.05518    0.07243    0.00175      0.07713      0.01452      0.00226      0.07500      0.01548      
22200   0.20762    0.05466    0.07177    0.00235      0.07625      0.01300      0.00275      0.07318      0.01426      
22300   0.20653    0.05439    0.07138    0.00200      0.07594      0.01406      0.00252      0.07387      0.01566      
22400   0.20541    0.05403    0.07099    0.00186      0.07598      0.01276      0.00234      0.07427      0.01356      
22500   0.20538    0.05392    0.07085    0.00217      0.07548      0.01485      0.00288      0.07304      0.01551      
22600   0.20514    0.05383    0.07074    0.00189      0.07583      0.01423      0.00233      0.07380      0.01383      
22700   0.20629    0.05421    0.07117    0.00230      0.07575      0.01426      0.00281      0.07349      0.01362      
22800   0.20512    0.05380    0.07076    0.00278      0.07527      0.01256      0.00290      0.07323      0.01337      
22900   0.20417    0.05363    0.07038    0.00200      0.07544      0.01363      0.00244      0.07375      0.01422      
23000   0.20393    0.05351    0.07022    0.00220      0.07539      0.01307      0.00282      0.07333      0.01358      
23100   0.20543    0.05393    0.07085    0.00219      0.07575      0.01354      0.00249      0.07434      0.01445      
23200   0.20422    0.05370    0.07028    0.00210      0.07523      0.01458      0.00236      0.07361      0.01417      
23300   0.20448    0.05378    0.07029    0.00231      0.07527      0.01417      0.00300      0.07346      0.01463      
23400   0.20352    0.05347    0.06993    0.00194      0.07530      0.01442      0.00239      0.07338      0.01404      
23500   0.20362    0.05345    0.06998    0.00239      0.07510      0.01346      0.00320      0.07339      0.01416      
23600   0.20316    0.05329    0.06973    0.00183      0.07541      0.01455      0.00235      0.07387      0.01615      
23700   0.20338    0.05333    0.06967    0.00209      0.07520      0.01549      0.00269      0.07316      0.01527      
23800   0.20296    0.05321    0.06946    0.00222      0.07543      0.01318      0.00274      0.07331      0.01461      
23900   0.20313    0.05325    0.06950    0.00226      0.07549      0.01313      0.00284      0.07323      0.01386      
24000   0.20199    0.05286    0.06914    0.00229      0.07513      0.01282      0.00282      0.07266      0.01356      
24100   0.20177    0.05284    0.06915    0.00201      0.07505      0.01357      0.00269      0.07301      0.01386      
24200   0.20216    0.05297    0.06917    0.00223      0.07535      0.01216      0.00252      0.07332      0.01221      
24300   0.20065    0.05259    0.06860    0.00239      0.07461      0.01224      0.00330      0.07284      0.01219      
24400   0.20113    0.05274    0.06875    0.00203      0.07505      0.01280      0.00258      0.07385      0.01215      
24500   0.19994    0.05232    0.06826    0.00228      0.07464      0.01222      0.00305      0.07325      0.01286      
24600   0.20030    0.05242    0.06843    0.00196      0.07492      0.01287      0.00216      0.07290      0.01340      
24700   0.20173    0.05269    0.06885    0.00200      0.07526      0.01464      0.00217      0.07384      0.01520      
24800   0.20069    0.05242    0.06844    0.00240      0.07500      0.01211      0.00323      0.07341      0.01280      
24900   0.19896    0.05188    0.06776    0.00179      0.07477      0.01380      0.00221      0.07326      0.01344      
25000   0.20007    0.05230    0.06815    0.00187      0.07459      0.01576      0.00227      0.07273      0.01520      
25100   0.19779    0.05164    0.06724    0.00187      0.07449      0.01272      0.00227      0.07264      0.01409      
25200   0.19793    0.05159    0.06730    0.00234      0.07407      0.01313      0.00262      0.07225      0.01388      
25300   0.19805    0.05164    0.06735    0.00216      0.07439      0.01254      0.00240      0.07289      0.01291      
25400   0.19673    0.05124    0.06694    0.00203      0.07372      0.01395      0.00219      0.07217      0.01485      
25500   0.19703    0.05138    0.06709    0.00247      0.07325      0.01415      0.00292      0.07174      0.01340      
25600   0.19585    0.05096    0.06654    0.00181      0.07382      0.01358      0.00235      0.07246      0.01497      
25700   0.19567    0.05091    0.06642    0.00229      0.07332      0.01367      0.00274      0.07204      0.01450      
25800   0.19648    0.05109    0.06666    0.00204      0.07402      0.01337      0.00268      0.07261      0.01273      
25900   0.19508    0.05070    0.06608    0.00206      0.07326      0.01486      0.00251      0.07189      0.01539      
26000   0.19546    0.05071    0.06609    0.00194      0.07403      0.01339      0.00245      0.07242      0.01263      
26100   0.19492    0.05062    0.06602    0.00197      0.07387      0.01225      0.00254      0.07238      0.01302      
26200   0.19537    0.05067    0.06601    0.00231      0.07397      0.01208      0.00281      0.07231      0.01304      
26300   0.19361    0.05016    0.06535    0.00189      0.07383      0.01186      0.00241      0.07242      0.01226      
26400   0.19345    0.05001    0.06533    0.00236      0.07335      0.01196      0.00262      0.07204      0.01281      
26500   0.19283    0.04970    0.06500    0.00230      0.07345      0.01191      0.00235      0.07246      0.01252      
26600   0.19243    0.04966    0.06488    0.00183      0.07363      0.01212      0.00235      0.07199      0.01222      
26700   0.19201    0.04949    0.06467    0.00219      0.07314      0.01260      0.00262      0.07206      0.01383      
26800   0.19202    0.04944    0.06461    0.00199      0.07348      0.01247      0.00250      0.07194      0.01286      
26900   0.19272    0.04964    0.06491    0.00218      0.07324      0.01376      0.00295      0.07200      0.01469      
27000   0.19228    0.04948    0.06469    0.00207      0.07362      0.01208      0.00249      0.07195      0.01266      
27100   0.19054    0.04903    0.06411    0.00214      0.07292      0.01169      0.00273      0.07149      0.01169      
27200   0.18936    0.04865    0.06364    0.00174      0.07290      0.01216      0.00221      0.07139      0.01274      
27300   0.19080    0.04896    0.06389    0.00244      0.07319      0.01160      0.00300      0.07196      0.01157      
27400   0.18986    0.04867    0.06365    0.00211      0.07296      0.01239      0.00237      0.07177      0.01215      
27500   0.19095    0.04904    0.06398    0.00179      0.07357      0.01286      0.00209      0.07209      0.01285      
27600   0.19030    0.04896    0.06363    0.00180      0.07337      0.01270      0.00220      0.07234      0.01291      
27700   0.19023    0.04882    0.06359    0.00193      0.07348      0.01206      0.00209      0.07226      0.01291      
27800   0.18966    0.04859    0.06336    0.00176      0.07353      0.01213      0.00211      0.07210      0.01290      
27900   0.18923    0.04847    0.06323    0.00193      0.07307      0.01264      0.00204      0.07214      0.01336      
28000   0.18911    0.04838    0.06316    0.00181      0.07323      0.01266      0.00210      0.07193      0.01427      
28100   0.18983    0.04858    0.06330    0.00192      0.07353      0.01250      0.00237      0.07271      0.01338      
28200   0.18962    0.04851    0.06312    0.00224      0.07314      0.01310      0.00228      0.07203      0.01482      
28300   0.18885    0.04831    0.06290    0.00194      0.07274      0.01484      0.00227      0.07184      0.01405      
28400   0.18760    0.04792    0.06247    0.00165      0.07293      0.01312      0.00203      0.07160      0.01376      
28500   0.18812    0.04796    0.06265    0.00184      0.07305      0.01315      0.00224      0.07143      0.01338      
28600   0.18696    0.04766    0.06225    0.00187      0.07275      0.01217      0.00240      0.07135      0.01259      
28700   0.18764    0.04774    0.06226    0.00220      0.07296      0.01239      0.00273      0.07164      0.01255      
28800   0.18642    0.04742    0.06186    0.00208      0.07261      0.01229      0.00254      0.07143      0.01281      
28900   0.18662    0.04750    0.06192    0.00214      0.07255      0.01251      0.00286      0.07172      0.01316      
29000   0.18714    0.04763    0.06212    0.00222      0.07287      0.01151      0.00241      0.07170      0.01192      
29100   0.18749    0.04775    0.06216    0.00210      0.07278      0.01347      0.00255      0.07138      0.01243      
29200   0.18696    0.04755    0.06188    0.00210      0.07313      0.01148      0.00255      0.07195      0.01174      
29300   0.18604    0.04731    0.06157    0.00184      0.07296      0.01175      0.00238      0.07185      0.01225      
29400   0.18607    0.04720    0.06148    0.00194      0.07301      0.01218      0.00255      0.07176      0.01244      
29500   0.18568    0.04704    0.06129    0.00201      0.07279      0.01275      0.00228      0.07148      0.01272      
29600   0.18500    0.04676    0.06105    0.00180      0.07300      0.01192      0.00229      0.07181      0.01239      
29700   0.18439    0.04650    0.06076    0.00184      0.07263      0.01328      0.00222      0.07167      0.01297      
29800   0.18380    0.04630    0.06059    0.00191      0.07246      0.01273      0.00246      0.07143      0.01361      
29900   0.18415    0.04632    0.06066    0.00184      0.07252      0.01405      0.00209      0.07175      0.01628      
30000   0.18377    0.04627    0.06055    0.00190      0.07272      0.01161      0.00258      0.07196      0.01224      
30100   0.18293    0.04600    0.06023    0.00188      0.07246      0.01176      0.00216      0.07128      0.01237      
30200   0.18348    0.04618    0.06039    0.00209      0.07247      0.01173      0.00225      0.07120      0.01193      
30300   0.18248    0.04592    0.05997    0.00174      0.07236      0.01244      0.00198      0.07104      0.01230      
30400   0.18239    0.04583    0.05985    0.00193      0.07233      0.01231      0.00253      0.07090      0.01269      
30500   0.18182    0.04555    0.05963    0.00202      0.07220      0.01211      0.00257      0.07124      0.01199      
30600   0.18149    0.04542    0.05939    0.00196      0.07230      0.01209      0.00247      0.07088      0.01245      
30700   0.18179    0.04547    0.05943    0.00182      0.07239      0.01343      0.00229      0.07093      0.01261      
30800   0.18095    0.04516    0.05910    0.00196      0.07238      0.01175      0.00216      0.07089      0.01197      
30900   0.18152    0.04519    0.05920    0.00214      0.07252      0.01238      0.00238      0.07136      0.01207      
31000   0.18100    0.04501    0.05898    0.00201      0.07257      0.01213      0.00214      0.07130      0.01257      
31100   0.17984    0.04475    0.05856    0.00182      0.07206      0.01325      0.00210      0.07095      0.01423      
31200   0.17966    0.04463    0.05831    0.00227      0.07201      0.01223      0.00256      0.07064      0.01244      
31300   0.17857    0.04431    0.05793    0.00189      0.07205      0.01194      0.00221      0.07056      0.01239      
31400   0.17895    0.04431    0.05797    0.00199      0.07212      0.01286      0.00253      0.07095      0.01185      
31500   0.17833    0.04403    0.05768    0.00209      0.07213      0.01204      0.00264      0.07070      0.01158      
31600   0.17742    0.04380    0.05738    0.00178      0.07202      0.01223      0.00215      0.07080      0.01191      
31700   0.17808    0.04397    0.05753    0.00182      0.07218      0.01284      0.00234      0.07075      0.01254      
31800   0.17684    0.04349    0.05693    0.00190      0.07198      0.01271      0.00233      0.07071      0.01173      
31900   0.17614    0.04332    0.05670    0.00190      0.07169      0.01261      0.00216      0.07023      0.01335      
32000   0.17569    0.04324    0.05659    0.00169      0.07153      0.01325      0.00216      0.07022      0.01299      
32100   0.17592    0.04323    0.05680    0.00191      0.07161      0.01185      0.00240      0.07030      0.01151      
32200   0.17579    0.04319    0.05656    0.00199      0.07157      0.01236      0.00238      0.07043      0.01144      
32300   0.17478    0.04290    0.05618    0.00193      0.07145      0.01155      0.00217      0.07028      0.01106      
32400   0.17421    0.04273    0.05595    0.00176      0.07138      0.01196      0.00217      0.07016      0.01135      
32500   0.17515    0.04297    0.05634    0.00177      0.07173      0.01164      0.00219      0.07060      0.01160      
32600   0.17518    0.04298    0.05620    0.00216      0.07131      0.01268      0.00218      0.06976      0.01381      
32700   0.17465    0.04260    0.05607    0.00188      0.07163      0.01232      0.00220      0.07023      0.01279      
32800   0.17310    0.04232    0.05559    0.00174      0.07120      0.01119      0.00214      0.06999      0.01127      
32900   0.17289    0.04221    0.05548    0.00190      0.07112      0.01090      0.00249      0.06984      0.01089      
33000   0.17304    0.04219    0.05539    0.00177      0.07098      0.01352      0.00221      0.06987      0.01352      
33100   0.17252    0.04196    0.05515    0.00196      0.07113      0.01162      0.00242      0.06997      0.01128      
33200   0.17221    0.04188    0.05499    0.00184      0.07118      0.01160      0.00239      0.06980      0.01155      
33300   0.17247    0.04209    0.05506    0.00197      0.07108      0.01133      0.00225      0.06983      0.01138      
33400   0.17231    0.04201    0.05493    0.00177      0.07107      0.01271      0.00217      0.06971      0.01274      
33500   0.17181    0.04174    0.05472    0.00162      0.07114      0.01292      0.00208      0.06997      0.01365      
33600   0.17129    0.04158    0.05450    0.00180      0.07097      0.01223      0.00235      0.06934      0.01275      
33700   0.17244    0.04183    0.05483    0.00211      0.07131      0.01179      0.00248      0.06985      0.01178      
33800   0.17039    0.04126    0.05407    0.00183      0.07086      0.01190      0.00232      0.06923      0.01230      
33900   0.17073    0.04120    0.05406    0.00210      0.07108      0.01145      0.00257      0.06965      0.01162      
34000   0.17074    0.04126    0.05410    0.00178      0.07122      0.01191      0.00220      0.06998      0.01239      
34100   0.17049    0.04112    0.05389    0.00202      0.07103      0.01216      0.00248      0.06959      0.01258      
34200   0.16997    0.04096    0.05375    0.00171      0.07122      0.01168      0.00220      0.07015      0.01247      
34300   0.17036    0.04099    0.05379    0.00173      0.07119      0.01328      0.00205      0.07001      0.01375      
34400   0.16960    0.04080    0.05341    0.00187      0.07098      0.01264      0.00237      0.06975      0.01298      
34500   0.16943    0.04054    0.05326    0.00198      0.07122      0.01213      0.00224      0.06991      0.01285      
34600   0.16868    0.04033    0.05291    0.00202      0.07102      0.01195      0.00255      0.06982      0.01155      
34700   0.16768    0.04005    0.05258    0.00184      0.07097      0.01119      0.00225      0.06949      0.01164      
34800   0.16779    0.04005    0.05261    0.00195      0.07092      0.01136      0.00231      0.06953      0.01165      
34900   0.16734    0.03976    0.05227    0.00178      0.07108      0.01224      0.00224      0.06968      0.01228      
35000   0.16752    0.03984    0.05232    0.00210      0.07067      0.01296      0.00240      0.06938      0.01300      
35100   0.16672    0.03966    0.05211    0.00190      0.07072      0.01161      0.00247      0.06917      0.01243      
35200   0.16615    0.03932    0.05180    0.00197      0.07070      0.01174      0.00247      0.06927      0.01257      
35300   0.16655    0.03946    0.05201    0.00185      0.07065      0.01289      0.00234      0.06920      0.01414      
35400   0.16562    0.03918    0.05168    0.00186      0.07056      0.01168      0.00235      0.06905      0.01227      
35500   0.16594    0.03929    0.05183    0.00179      0.07072      0.01158      0.00220      0.06940      0.01216      
35600   0.16525    0.03902    0.05146    0.00185      0.07043      0.01250      0.00210      0.06924      0.01160      
35700   0.16501    0.03882    0.05132    0.00194      0.07064      0.01151      0.00262      0.06943      0.01167      
35800   0.16444    0.03855    0.05099    0.00181      0.07081      0.01140      0.00227      0.06972      0.01145      
35900   0.16474    0.03871    0.05104    0.00172      0.07079      0.01239      0.00206      0.06948      0.01284      
36000   0.16494    0.03873    0.05113    0.00198      0.07082      0.01144      0.00261      0.06938      0.01152      
36100   0.16504    0.03882    0.05126    0.00187      0.07064      0.01225      0.00212      0.06934      0.01157      
36200   0.16405    0.03845    0.05085    0.00204      0.07040      0.01154      0.00265      0.06900      0.01186      
36300   0.16415    0.03857    0.05083    0.00168      0.07035      0.01362      0.00200      0.06906      0.01456      
36400   0.16328    0.03826    0.05058    0.00192      0.07023      0.01143      0.00252      0.06864      0.01163      
36500   0.16328    0.03826    0.05055    0.00180      0.07029      0.01190      0.00225      0.06886      0.01194      
36600   0.16271    0.03792    0.05026    0.00173      0.07037      0.01219      0.00210      0.06914      0.01255      
36700   0.16255    0.03779    0.05023    0.00180      0.07046      0.01131      0.00235      0.06917      0.01134      
36800   0.16200    0.03765    0.04996    0.00180      0.07032      0.01135      0.00236      0.06913      0.01148      
36900   0.16222    0.03774    0.05002    0.00188      0.07015      0.01215      0.00209      0.06899      0.01254      
37000   0.16173    0.03750    0.04972    0.00172      0.07042      0.01188      0.00202      0.06931      0.01250      
37100   0.16158    0.03755    0.04962    0.00164      0.07028      0.01248      0.00206      0.06887      0.01167      
37200   0.16130    0.03725    0.04949    0.00186      0.07042      0.01142      0.00230      0.06934      0.01135      
37300   0.16112    0.03712    0.04950    0.00191      0.07034      0.01127      0.00213      0.06941      0.01158      
37400   0.16076    0.03699    0.04933    0.00185      0.07025      0.01168      0.00250      0.06904      0.01144      
37500   0.16059    0.03696    0.04925    0.00157      0.07057      0.01121      0.00190      0.06938      0.01129      
37600   0.16067    0.03702    0.04918    0.00192      0.07033      0.01105      0.00248      0.06889      0.01123      
37700   0.16026    0.03683    0.04902    0.00170      0.07040      0.01157      0.00219      0.06909      0.01179      
37800   0.16001    0.03670    0.04887    0.00182      0.07030      0.01162      0.00232      0.06919      0.01115      
37900   0.15938    0.03647    0.04856    0.00169      0.07041      0.01123      0.00209      0.06920      0.01169      
38000   0.15964    0.03656    0.04863    0.00166      0.07052      0.01138      0.00202      0.06934      0.01160      
38100   0.15939    0.03643    0.04848    0.00175      0.07045      0.01140      0.00211      0.06934      0.01204      
38200   0.15852    0.03614    0.04806    0.00172      0.07026      0.01164      0.00197      0.06918      0.01152      
38300   0.15863    0.03624    0.04817    0.00174      0.07025      0.01115      0.00211      0.06896      0.01100      
38400   0.15813    0.03604    0.04799    0.00181      0.07011      0.01094      0.00233      0.06880      0.01138      
38500   0.15802    0.03601    0.04785    0.00160      0.07020      0.01179      0.00194      0.06877      0.01234      
38600   0.15775    0.03590    0.04778    0.00195      0.06988      0.01124      0.00223      0.06870      0.01160      
38700   0.15765    0.03595    0.04772    0.00198      0.06975      0.01126      0.00249      0.06859      0.01146      
38800   0.15753    0.03576    0.04757    0.00189      0.06985      0.01225      0.00249      0.06874      0.01232      
38900   0.15659    0.03555    0.04732    0.00187      0.06952      0.01163      0.00241      0.06838      0.01191      
39000   0.15623    0.03539    0.04714    0.00186      0.06958      0.01125      0.00227      0.06867      0.01145      
39100   0.15654    0.03537    0.04716    0.00192      0.06983      0.01128      0.00227      0.06876      0.01109      
39200   0.15619    0.03526    0.04705    0.00173      0.06993      0.01112      0.00226      0.06894      0.01100      
39300   0.15585    0.03509    0.04684    0.00199      0.06964      0.01144      0.00256      0.06843      0.01078      
39400   0.15551    0.03497    0.04676    0.00168      0.06977      0.01163      0.00213      0.06874      0.01162      
39500   0.15525    0.03486    0.04663    0.00170      0.06977      0.01146      0.00209      0.06869      0.01182      
39600   0.15508    0.03488    0.04657    0.00173      0.06965      0.01122      0.00211      0.06846      0.01178      
39700   0.15534    0.03491    0.04656    0.00192      0.06970      0.01127      0.00215      0.06856      0.01175      
39800   0.15453    0.03468    0.04615    0.00167      0.06980      0.01115      0.00206      0.06882      0.01135      
39900   0.15385    0.03443    0.04596    0.00188      0.06935      0.01116      0.00225      0.06813      0.01114      
40000   0.15340    0.03421    0.04566    0.00175      0.06955      0.01115      0.00210      0.06831      0.01105      
40100   0.15314    0.03414    0.04558    0.00159      0.06963      0.01100      0.00202      0.06854      0.01133      
40200   0.15371    0.03416    0.04571    0.00173      0.06989      0.01114      0.00205      0.06870      0.01147      
40300   0.15346    0.03417    0.04566    0.00188      0.06952      0.01115      0.00237      0.06838      0.01128      
40400   0.15318    0.03410    0.04555    0.00169      0.06964      0.01101      0.00220      0.06834      0.01129      
40500   0.15319    0.03400    0.04543    0.00189      0.06952      0.01171      0.00234      0.06838      0.01142      
40600   0.15244    0.03384    0.04518    0.00180      0.06940      0.01109      0.00233      0.06820      0.01145      
40700   0.15254    0.03381    0.04509    0.00176      0.06957      0.01154      0.00221      0.06848      0.01178      
40800   0.15174    0.03349    0.04481    0.00188      0.06936      0.01102      0.00236      0.06820      0.01099      
40900   0.15146    0.03344    0.04464    0.00168      0.06942      0.01138      0.00208      0.06826      0.01132      
41000   0.15118    0.03336    0.04455    0.00182      0.06919      0.01125      0.00222      0.06796      0.01145      
41100   0.15106    0.03336    0.04445    0.00171      0.06935      0.01097      0.00199      0.06820      0.01128      
41200   0.15065    0.03324    0.04431    0.00159      0.06933      0.01092      0.00202      0.06814      0.01107      
41300   0.15046    0.03309    0.04416    0.00184      0.06913      0.01122      0.00224      0.06804      0.01148      
41400   0.15018    0.03296    0.04405    0.00187      0.06903      0.01133      0.00238      0.06807      0.01146      
41500   0.15018    0.03287    0.04393    0.00174      0.06903      0.01307      0.00214      0.06789      0.01220      
41600   0.14982    0.03285    0.04389    0.00170      0.06914      0.01120      0.00211      0.06818      0.01155      
41700   0.14910    0.03259    0.04352    0.00176      0.06893      0.01149      0.00215      0.06785      0.01210      
41800   0.14920    0.03259    0.04359    0.00161      0.06901      0.01195      0.00194      0.06786      0.01256      
41900   0.14931    0.03247    0.04356    0.00180      0.06921      0.01135      0.00205      0.06795      0.01185      
42000   0.14915    0.03262    0.04342    0.00157      0.06929      0.01125      0.00195      0.06817      0.01145      
42100   0.14896    0.03241    0.04328    0.00160      0.06933      0.01167      0.00192      0.06821      0.01188      
42200   0.14845    0.03230    0.04315    0.00164      0.06915      0.01106      0.00193      0.06790      0.01131      
42300   0.14789    0.03214    0.04293    0.00152      0.06896      0.01172      0.00186      0.06780      0.01251      
42400   0.14773    0.03195    0.04273    0.00176      0.06896      0.01166      0.00225      0.06776      0.01217      
42500   0.14758    0.03197    0.04273    0.00155      0.06918      0.01075      0.00184      0.06811      0.01084      
42600   0.14768    0.03191    0.04272    0.00186      0.06898      0.01101      0.00208      0.06781      0.01126      
42700   0.14751    0.03189    0.04266    0.00157      0.06909      0.01144      0.00198      0.06794      0.01171      
42800   0.14750    0.03193    0.04264    0.00169      0.06886      0.01192      0.00200      0.06750      0.01275      
42900   0.14720    0.03190    0.04255    0.00173      0.06883      0.01098      0.00223      0.06755      0.01094      
43000   0.14695    0.03178    0.04244    0.00159      0.06888      0.01131      0.00187      0.06753      0.01193      
43100   0.14660    0.03168    0.04232    0.00166      0.06872      0.01111      0.00217      0.06755      0.01148      
43200   0.14599    0.03143    0.04206    0.00159      0.06867      0.01121      0.00197      0.06739      0.01178      
43300   0.14596    0.03138    0.04202    0.00167      0.06862      0.01139      0.00218      0.06743      0.01179      
43400   0.14577    0.03127    0.04189    0.00161      0.06867      0.01170      0.00200      0.06738      0.01253      
43500   0.14592    0.03131    0.04185    0.00176      0.06878      0.01108      0.00199      0.06754      0.01123      
43600   0.14596    0.03139    0.04190    0.00182      0.06864      0.01105      0.00218      0.06764      0.01123      
43700   0.14576    0.03136    0.04181    0.00166      0.06868      0.01128      0.00205      0.06779      0.01134      
43800   0.14547    0.03128    0.04167    0.00166      0.06853      0.01164      0.00201      0.06754      0.01210      
43900   0.14528    0.03117    0.04161    0.00176      0.06851      0.01114      0.00206      0.06740      0.01171      
44000   0.14514    0.03108    0.04154    0.00159      0.06866      0.01135      0.00201      0.06780      0.01196      
44100   0.14449    0.03069    0.04114    0.00146      0.06865      0.01273      0.00177      0.06756      0.01378      
44200   0.14453    0.03072    0.04120    0.00172      0.06859      0.01154      0.00200      0.06734      0.01230      
44300   0.14405    0.03058    0.04105    0.00153      0.06867      0.01109      0.00190      0.06758      0.01147      
44400   0.14419    0.03063    0.04102    0.00164      0.06864      0.01128      0.00212      0.06751      0.01142      
44500   0.14385    0.03045    0.04091    0.00151      0.06868      0.01149      0.00187      0.06758      0.01165      
44600   0.14350    0.03035    0.04073    0.00148      0.06877      0.01080      0.00184      0.06779      0.01090      
44700   0.14342    0.03037    0.04071    0.00160      0.06857      0.01081      0.00198      0.06754      0.01083      
44800   0.14319    0.03026    0.04066    0.00151      0.06852      0.01122      0.00192      0.06745      0.01159      
44900   0.14334    0.03032    0.04067    0.00166      0.06847      0.01104      0.00219      0.06723      0.01137      
45000   0.14326    0.03030    0.04062    0.00172      0.06838      0.01125      0.00213      0.06739      0.01118      
45100   0.14306    0.03016    0.04052    0.00154      0.06851      0.01160      0.00201      0.06752      0.01196      
45200   0.14239    0.02997    0.04035    0.00174      0.06811      0.01107      0.00218      0.06719      0.01067      
45300   0.14253    0.03000    0.04035    0.00190      0.06813      0.01076      0.00241      0.06713      0.01068      
45400   0.14283    0.03012    0.04039    0.00167      0.06838      0.01135      0.00215      0.06733      0.01142      
45500   0.14268    0.03018    0.04038    0.00164      0.06820      0.01135      0.00201      0.06725      0.01158      
45600   0.14231    0.02994    0.04025    0.00158      0.06834      0.01104      0.00194      0.06732      0.01137      
45700   0.14236    0.03005    0.04026    0.00166      0.06815      0.01116      0.00217      0.06714      0.01167      
45800   0.14240    0.03000    0.04023    0.00172      0.06811      0.01167      0.00195      0.06714      0.01112      
45900   0.14171    0.02980    0.03998    0.00169      0.06805      0.01097      0.00208      0.06694      0.01123      
46000   0.14177    0.02981    0.03998    0.00182      0.06800      0.01076      0.00209      0.06700      0.01072      
46100   0.14198    0.02982    0.04003    0.00165      0.06825      0.01114      0.00207      0.06733      0.01131      
46200   0.14146    0.02964    0.03986    0.00172      0.06803      0.01100      0.00212      0.06717      0.01117      
46300   0.14125    0.02954    0.03973    0.00165      0.06811      0.01113      0.00212      0.06734      0.01088      
46400   0.14137    0.02952    0.03974    0.00163      0.06823      0.01122      0.00188      0.06731      0.01162      
46500   0.14088    0.02944    0.03955    0.00161      0.06811      0.01090      0.00206      0.06740      0.01111      
46600   0.14065    0.02931    0.03939    0.00175      0.06800      0.01098      0.00220      0.06685      0.01101      
46700   0.14034    0.02928    0.03929    0.00158      0.06794      0.01123      0.00204      0.06707      0.01125      
46800   0.14057    0.02921    0.03931    0.00181      0.06810      0.01069      0.00233      0.06710      0.01048      
46900   0.14025    0.02922    0.03924    0.00161      0.06797      0.01110      0.00199      0.06686      0.01096      
47000   0.14000    0.02894    0.03910    0.00170      0.06786      0.01201      0.00217      0.06689      0.01095      
47100   0.13978    0.02894    0.03902    0.00162      0.06789      0.01148      0.00202      0.06697      0.01140      
47200   0.13971    0.02889    0.03894    0.00163      0.06808      0.01083      0.00200      0.06711      0.01114      
47300   0.13928    0.02882    0.03883    0.00175      0.06770      0.01089      0.00217      0.06675      0.01095      
47400   0.13910    0.02858    0.03862    0.00158      0.06787      0.01223      0.00193      0.06686      0.01320      
47500   0.13904    0.02860    0.03865    0.00163      0.06794      0.01111      0.00199      0.06707      0.01152      
47600   0.13911    0.02867    0.03868    0.00167      0.06780      0.01150      0.00208      0.06667      0.01156      
47700   0.13872    0.02845    0.03856    0.00152      0.06791      0.01140      0.00186      0.06675      0.01143      
47800   0.13841    0.02848    0.03840    0.00157      0.06770      0.01132      0.00186      0.06682      0.01150      
47900   0.13865    0.02855    0.03850    0.00168      0.06767      0.01131      0.00193      0.06679      0.01166      
48000   0.13837    0.02836    0.03838    0.00160      0.06772      0.01159      0.00210      0.06704      0.01134      
48100   0.13800    0.02828    0.03822    0.00177      0.06753      0.01099      0.00231      0.06677      0.01138      
48200   0.13806    0.02827    0.03826    0.00155      0.06775      0.01118      0.00197      0.06685      0.01114      
48300   0.13736    0.02809    0.03798    0.00150      0.06763      0.01084      0.00187      0.06681      0.01121      
48400   0.13767    0.02809    0.03804    0.00150      0.06773      0.01154      0.00171      0.06687      0.01182      
48500   0.13742    0.02808    0.03800    0.00146      0.06761      0.01143      0.00177      0.06672      0.01199      
48600   0.13770    0.02812    0.03806    0.00161      0.06764      0.01134      0.00204      0.06686      0.01164      
48700   0.13727    0.02800    0.03793    0.00173      0.06737      0.01114      0.00208      0.06644      0.01116      
48800   0.13711    0.02791    0.03788    0.00169      0.06736      0.01135      0.00192      0.06645      0.01202      
48900   0.13724    0.02798    0.03786    0.00172      0.06751      0.01079      0.00218      0.06657      0.01085      
49000   0.13706    0.02793    0.03777    0.00169      0.06739      0.01137      0.00212      0.06646      0.01105      
49100   0.13700    0.02776    0.03770    0.00158      0.06763      0.01164      0.00197      0.06657      0.01211      
49200   0.13671    0.02771    0.03758    0.00169      0.06751      0.01112      0.00198      0.06643      0.01111      
49300   0.13643    0.02771    0.03759    0.00157      0.06733      0.01119      0.00195      0.06638      0.01176      
49400   0.13650    0.02768    0.03751    0.00160      0.06742      0.01143      0.00195      0.06639      0.01232      
49500   0.13656    0.02766    0.03760    0.00159      0.06747      0.01121      0.00201      0.06663      0.01135      
49600   0.13607    0.02748    0.03738    0.00153      0.06741      0.01136      0.00192      0.06637      0.01179      
49700   0.13587    0.02738    0.03725    0.00163      0.06734      0.01130      0.00207      0.06604      0.01148      
49800   0.13549    0.02719    0.03713    0.00155      0.06733      0.01146      0.00193      0.06627      0.01198      
49900   0.13509    0.02704    0.03695    0.00149      0.06740      0.01107      0.00186      0.06646      0.01130      
50000   0.13516    0.02704    0.03693    0.00170      0.06727      0.01111      0.00201      0.06627      0.01149      
50100   0.13500    0.02694    0.03686    0.00158      0.06716      0.01232      0.00198      0.06616      0.01239      
50200   0.13481    0.02688    0.03680    0.00164      0.06733      0.01081      0.00205      0.06631      0.01080      
50300   0.13486    0.02691    0.03676    0.00159      0.06736      0.01123      0.00199      0.06651      0.01124      
50400   0.13458    0.02678    0.03665    0.00176      0.06726      0.01072      0.00222      0.06636      0.01065      
50500   0.13475    0.02691    0.03671    0.00159      0.06737      0.01086      0.00210      0.06632      0.01111      
50600   0.13481    0.02688    0.03669    0.00161      0.06743      0.01100      0.00199      0.06649      0.01089      
50700   0.13465    0.02687    0.03664    0.00160      0.06730      0.01116      0.00191      0.06636      0.01125      
50800   0.13414    0.02664    0.03645    0.00167      0.06721      0.01088      0.00221      0.06632      0.01123      
50900   0.13430    0.02662    0.03648    0.00163      0.06738      0.01096      0.00210      0.06629      0.01071      
51000   0.13412    0.02656    0.03640    0.00161      0.06734      0.01106      0.00197      0.06642      0.01108      
51100   0.13387    0.02649    0.03624    0.00173      0.06723      0.01084      0.00215      0.06625      0.01097      
51200   0.13366    0.02642    0.03613    0.00164      0.06723      0.01122      0.00209      0.06628      0.01101      
51300   0.13340    0.02629    0.03604    0.00159      0.06723      0.01121      0.00200      0.06630      0.01147      
51400   0.13341    0.02628    0.03598    0.00159      0.06737      0.01094      0.00202      0.06648      0.01122      
51500   0.13318    0.02616    0.03588    0.00166      0.06725      0.01115      0.00205      0.06624      0.01088      
51600   0.13272    0.02601    0.03575    0.00170      0.06705      0.01107      0.00212      0.06585      0.01143      
51700   0.13262    0.02599    0.03569    0.00156      0.06722      0.01087      0.00194      0.06617      0.01085      
51800   0.13249    0.02603    0.03567    0.00177      0.06685      0.01081      0.00222      0.06575      0.01077      
51900   0.13250    0.02599    0.03563    0.00169      0.06693      0.01126      0.00205      0.06585      0.01161      
52000   0.13279    0.02621    0.03573    0.00161      0.06704      0.01101      0.00197      0.06599      0.01120      
52100   0.13274    0.02614    0.03568    0.00177      0.06702      0.01066      0.00233      0.06590      0.01041      
52200   0.13239    0.02607    0.03555    0.00162      0.06702      0.01061      0.00207      0.06604      0.01064      
52300   0.13246    0.02601    0.03556    0.00174      0.06698      0.01082      0.00211      0.06595      0.01088      
52400   0.13209    0.02582    0.03541    0.00162      0.06713      0.01052      0.00199      0.06613      0.01054      
52500   0.13175    0.02574    0.03532    0.00169      0.06690      0.01049      0.00203      0.06583      0.01031      
52600   0.13168    0.02569    0.03526    0.00162      0.06694      0.01081      0.00200      0.06589      0.01092      
52700   0.13138    0.02557    0.03510    0.00174      0.06688      0.01046      0.00228      0.06576      0.01025      
52800   0.13162    0.02566    0.03516    0.00167      0.06695      0.01085      0.00199      0.06598      0.01091      
52900   0.13151    0.02555    0.03509    0.00161      0.06715      0.01056      0.00186      0.06618      0.01059      
53000   0.13131    0.02550    0.03506    0.00176      0.06691      0.01039      0.00227      0.06583      0.01016      
53100   0.13117    0.02554    0.03496    0.00163      0.06691      0.01066      0.00207      0.06598      0.01045      
53200   0.13120    0.02547    0.03489    0.00158      0.06720      0.01029      0.00188      0.06622      0.01016      
53300   0.13094    0.02542    0.03488    0.00151      0.06702      0.01053      0.00187      0.06601      0.01058      
53400   0.13115    0.02544    0.03494    0.00168      0.06699      0.01052      0.00219      0.06613      0.01047      
53500   0.13058    0.02523    0.03472    0.00173      0.06678      0.01057      0.00215      0.06601      0.01063      
53600   0.13021    0.02510    0.03460    0.00167      0.06672      0.01062      0.00221      0.06595      0.01041      
53700   0.13030    0.02518    0.03460    0.00155      0.06681      0.01078      0.00195      0.06595      0.01095      
53800   0.13005    0.02506    0.03449    0.00156      0.06680      0.01071      0.00200      0.06592      0.01098      
53900   0.13012    0.02503    0.03448    0.00152      0.06685      0.01121      0.00195      0.06619      0.01179      
54000   0.12998    0.02499    0.03439    0.00151      0.06678      0.01156      0.00190      0.06606      0.01197      
54100   0.12982    0.02489    0.03437    0.00170      0.06669      0.01081      0.00219      0.06589      0.01106      
54200   0.13012    0.02504    0.03451    0.00157      0.06679      0.01103      0.00202      0.06592      0.01152      
54300   0.13007    0.02503    0.03451    0.00162      0.06665      0.01132      0.00205      0.06555      0.01165      
54400   0.12978    0.02492    0.03436    0.00160      0.06676      0.01072      0.00203      0.06568      0.01063      
54500   0.13004    0.02509    0.03446    0.00149      0.06674      0.01128      0.00186      0.06570      0.01170      
54600   0.13012    0.02512    0.03447    0.00165      0.06667      0.01105      0.00208      0.06565      0.01103      
54700   0.13007    0.02500    0.03446    0.00161      0.06678      0.01106      0.00201      0.06581      0.01131      
54800   0.13021    0.02510    0.03453    0.00154      0.06681      0.01121      0.00181      0.06584      0.01167      
54900   0.12985    0.02494    0.03438    0.00169      0.06673      0.01056      0.00220      0.06582      0.01067      
55000   0.12967    0.02481    0.03433    0.00166      0.06674      0.01064      0.00199      0.06591      0.01082      
55100   0.12967    0.02480    0.03431    0.00170      0.06669      0.01085      0.00211      0.06582      0.01099      
55200   0.12983    0.02491    0.03432    0.00153      0.06681      0.01131      0.00197      0.06602      0.01160      
55300   0.12969    0.02486    0.03422    0.00158      0.06682      0.01104      0.00198      0.06605      0.01094      
55400   0.12940    0.02479    0.03421    0.00157      0.06675      0.01041      0.00202      0.06603      0.01040      
55500   0.12931    0.02478    0.03415    0.00157      0.06670      0.01060      0.00198      0.06595      0.01062      
55600   0.12946    0.02474    0.03418    0.00163      0.06677      0.01073      0.00195      0.06594      0.01096      
55700   0.12964    0.02481    0.03421    0.00147      0.06694      0.01112      0.00177      0.06595      0.01124      
55800   0.12944    0.02481    0.03417    0.00170      0.06665      0.01055      0.00213      0.06581      0.01057      
55900   0.12955    0.02485    0.03415    0.00145      0.06689      0.01107      0.00182      0.06585      0.01147      
56000   0.12969    0.02496    0.03425    0.00149      0.06681      0.01086      0.00187      0.06595      0.01088      
56100   0.12938    0.02479    0.03413    0.00156      0.06678      0.01061      0.00202      0.06595      0.01086      
56200   0.12953    0.02477    0.03415    0.00152      0.06693      0.01077      0.00192      0.06604      0.01104      
56300   0.12889    0.02449    0.03395    0.00151      0.06671      0.01115      0.00184      0.06576      0.01121      
56400   0.12861    0.02439    0.03382    0.00163      0.06661      0.01077      0.00208      0.06579      0.01091      
56500   0.12890    0.02446    0.03392    0.00170      0.06664      0.01091      0.00203      0.06571      0.01114      
56600   0.12847    0.02429    0.03370    0.00158      0.06674      0.01076      0.00202      0.06581      0.01099      
56700   0.12852    0.02425    0.03369    0.00156      0.06687      0.01076      0.00201      0.06597      0.01117      
56800   0.12827    0.02420    0.03364    0.00159      0.06664      0.01100      0.00202      0.06571      0.01122      
56900   0.12823    0.02419    0.03359    0.00150      0.06679      0.01080      0.00184      0.06598      0.01097      
57000   0.12786    0.02408    0.03350    0.00157      0.06653      0.01092      0.00200      0.06564      0.01081      
57100   0.12760    0.02399    0.03334    0.00148      0.06667      0.01061      0.00188      0.06586      0.01073      
57200   0.12752    0.02392    0.03334    0.00152      0.06663      0.01050      0.00190      0.06583      0.01059      
57300   0.12741    0.02384    0.03327    0.00149      0.06666      0.01075      0.00184      0.06567      0.01108      
57400   0.12733    0.02381    0.03323    0.00152      0.06661      0.01087      0.00193      0.06571      0.01097      
57500   0.12728    0.02385    0.03324    0.00155      0.06653      0.01056      0.00189      0.06561      0.01054      
57600   0.12724    0.02383    0.03317    0.00153      0.06649      0.01109      0.00188      0.06569      0.01164      
57700   0.12764    0.02400    0.03333    0.00143      0.06665      0.01112      0.00181      0.06566      0.01148      
57800   0.12712    0.02380    0.03312    0.00163      0.06648      0.01048      0.00209      0.06560      0.01032      
57900   0.12702    0.02384    0.03310    0.00153      0.06647      0.01044      0.00195      0.06550      0.01041      
58000   0.12693    0.02373    0.03303    0.00154      0.06654      0.01049      0.00177      0.06576      0.01064      
58100   0.12690    0.02379    0.03303    0.00147      0.06655      0.01033      0.00181      0.06566      0.01045      
58200   0.12675    0.02368    0.03291    0.00147      0.06657      0.01062      0.00179      0.06559      0.01080      
58300   0.12661    0.02368    0.03286    0.00151      0.06641      0.01073      0.00191      0.06541      0.01050      
58400   0.12647    0.02362    0.03278    0.00163      0.06629      0.01072      0.00203      0.06538      0.01109      
58500   0.12649    0.02364    0.03278    0.00154      0.06637      0.01072      0.00194      0.06532      0.01099      
58600   0.12649    0.02361    0.03282    0.00151      0.06631      0.01121      0.00193      0.06544      0.01208      
58700   0.12641    0.02365    0.03280    0.00153      0.06618      0.01125      0.00198      0.06531      0.01179      
58800   0.12610    0.02354    0.03268    0.00152      0.06622      0.01065      0.00188      0.06529      0.01097      
58900   0.12629    0.02357    0.03274    0.00159      0.06627      0.01058      0.00203      0.06549      0.01086      
59000   0.12651    0.02365    0.03280    0.00153      0.06634      0.01095      0.00189      0.06553      0.01153      
59100   0.12633    0.02361    0.03272    0.00157      0.06632      0.01054      0.00180      0.06547      0.01083      
59200   0.12628    0.02358    0.03269    0.00147      0.06636      0.01088      0.00183      0.06554      0.01101      
59300   0.12634    0.02353    0.03268    0.00166      0.06637      0.01048      0.00214      0.06556      0.01078      
59400   0.12587    0.02344    0.03257    0.00143      0.06627      0.01077      0.00177      0.06537      0.01123      
59500   0.12597    0.02345    0.03255    0.00150      0.06634      0.01065      0.00192      0.06550      0.01084      
59600   0.12588    0.02344    0.03254    0.00158      0.06614      0.01084      0.00207      0.06532      0.01095      
59700   0.12596    0.02349    0.03260    0.00149      0.06625      0.01068      0.00183      0.06540      0.01071      
59800   0.12611    0.02355    0.03262    0.00160      0.06621      0.01060      0.00208      0.06539      0.01065      
59900   0.12597    0.02344    0.03252    0.00157      0.06631      0.01064      0.00206      0.06546      0.01072      
60000   0.12583    0.02339    0.03247    0.00159      0.06622      0.01072      0.00187      0.06536      0.01086      
60100   0.12588    0.02341    0.03248    0.00156      0.06631      0.01058      0.00199      0.06554      0.01065      
60200   0.12555    0.02325    0.03231    0.00158      0.06624      0.01085      0.00205      0.06547      0.01131      
60300   0.12552    0.02329    0.03233    0.00148      0.06631      0.01061      0.00188      0.06545      0.01087      
60400   0.12545    0.02318    0.03228    0.00149      0.06638      0.01057      0.00186      0.06559      0.01062      
60500   0.12528    0.02311    0.03223    0.00168      0.06618      0.01042      0.00215      0.06523      0.01050      
60600   0.12511    0.02305    0.03219    0.00144      0.06628      0.01075      0.00180      0.06556      0.01102      
60700   0.12530    0.02317    0.03223    0.00158      0.06623      0.01049      0.00201      0.06548      0.01061      
60800   0.12509    0.02312    0.03214    0.00160      0.06615      0.01043      0.00198      0.06519      0.01064      
60900   0.12489    0.02306    0.03201    0.00146      0.06625      0.01055      0.00183      0.06552      0.01089      
61000   0.12474    0.02298    0.03195    0.00158      0.06603      0.01104      0.00199      0.06518      0.01145      
61100   0.12471    0.02294    0.03196    0.00149      0.06618      0.01072      0.00193      0.06534      0.01105      
61200   0.12490    0.02304    0.03203    0.00162      0.06611      0.01054      0.00211      0.06535      0.01064      
61300   0.12471    0.02301    0.03194    0.00154      0.06609      0.01063      0.00195      0.06527      0.01059      
61400   0.12473    0.02300    0.03193    0.00156      0.06613      0.01056      0.00205      0.06535      0.01049      
61500   0.12461    0.02292    0.03191    0.00160      0.06611      0.01036      0.00202      0.06525      0.01032      
61600   0.12466    0.02292    0.03191    0.00152      0.06615      0.01080      0.00196      0.06540      0.01131      
61700   0.12448    0.02281    0.03183    0.00168      0.06602      0.01068      0.00223      0.06528      0.01093      
61800   0.12440    0.02281    0.03179    0.00148      0.06615      0.01085      0.00178      0.06534      0.01118      
61900   0.12449    0.02286    0.03181    0.00155      0.06619      0.01035      0.00195      0.06531      0.01036      
62000   0.12451    0.02294    0.03184    0.00142      0.06627      0.01019      0.00179      0.06539      0.01002      
62100   0.12433    0.02279    0.03176    0.00154      0.06613      0.01055      0.00194      0.06531      0.01038      
62200   0.12420    0.02271    0.03167    0.00156      0.06617      0.01046      0.00188      0.06560      0.01050      
62300   0.12400    0.02273    0.03162    0.00151      0.06604      0.01050      0.00189      0.06534      0.01070      
62400   0.12394    0.02264    0.03154    0.00158      0.06613      0.01024      0.00195      0.06534      0.01017      
62500   0.12413    0.02266    0.03161    0.00168      0.06610      0.01043      0.00203      0.06533      0.01045      
62600   0.12366    0.02250    0.03143    0.00161      0.06602      0.01050      0.00201      0.06526      0.01066      
62700   0.12385    0.02246    0.03143    0.00150      0.06639      0.01036      0.00177      0.06563      0.01049      
[...]
133800  0.09173    0.00878    0.01828    0.00129      0.06141      0.00983      0.00165      0.06101      0.01009      
133900  0.09173    0.00878    0.01828    0.00128      0.06143      0.00983      0.00163      0.06101      0.01009      
134000  0.09172    0.00878    0.01827    0.00129      0.06141      0.00983      0.00165      0.06100      0.01009      
134100  0.09172    0.00878    0.01827    0.00129      0.06141      0.00983      0.00165      0.06100      0.01009      
134200  0.09172    0.00878    0.01827    0.00129      0.06142      0.00983      0.00165      0.06102      0.01009      
134300  0.09171    0.00878    0.01827    0.00129      0.06141      0.00983      0.00165      0.06101      0.01008      
134400  0.09171    0.00878    0.01827    0.00128      0.06142      0.00983      0.00163      0.06103      0.01009      
134500  0.09171    0.00878    0.01826    0.00129      0.06141      0.00983      0.00165      0.06102      0.01010      
134600  0.09170    0.00877    0.01826    0.00129      0.06141      0.00982      0.00164      0.06101      0.01008      
134700  0.09169    0.00877    0.01826    0.00130      0.06140      0.00982      0.00166      0.06101      0.01007      
134800  0.09169    0.00877    0.01826    0.00129      0.06141      0.00982      0.00165      0.06101      0.01008      
134900  0.09168    0.00877    0.01825    0.00129      0.06140      0.00982      0.00165      0.06101      0.01009      
135000  0.09168    0.00877    0.01825    0.00129      0.06141      0.00982      0.00165      0.06100      0.01008      
135100  0.09168    0.00877    0.01825    0.00129      0.06141      0.00982      0.00164      0.06100      0.01007      
135200  0.09167    0.00876    0.01825    0.00129      0.06140      0.00983      0.00165      0.06099      0.01010      
135300  0.09167    0.00876    0.01825    0.00130      0.06140      0.00982      0.00166      0.06099      0.01007      
135400  0.09166    0.00876    0.01824    0.00129      0.06140      0.00983      0.00165      0.06100      0.01010      
135500  0.09166    0.00876    0.01824    0.00128      0.06140      0.00984      0.00164      0.06100      0.01011      
135600  0.09165    0.00876    0.01824    0.00128      0.06140      0.00984      0.00164      0.06100      0.01011      
135700  0.09165    0.00876    0.01824    0.00129      0.06140      0.00983      0.00164      0.06100      0.01009      
135800  0.09164    0.00875    0.01824    0.00128      0.06140      0.00983      0.00164      0.06100      0.01010      
135900  0.09164    0.00875    0.01823    0.00130      0.06139      0.00982      0.00166      0.06099      0.01008      
136000  0.09164    0.00875    0.01823    0.00129      0.06140      0.00983      0.00165      0.06100      0.01010      
136100  0.09163    0.00875    0.01823    0.00128      0.06139      0.00985      0.00164      0.06100      0.01014      
136200  0.09163    0.00875    0.01823    0.00129      0.06139      0.00985      0.00164      0.06100      0.01012      
136300  0.09162    0.00874    0.01822    0.00129      0.06139      0.00985      0.00166      0.06099      0.01013      
136400  0.09161    0.00874    0.01822    0.00130      0.06138      0.00984      0.00166      0.06099      0.01010      
136500  0.09161    0.00874    0.01822    0.00130      0.06139      0.00985      0.00166      0.06099      0.01013      
136600  0.09161    0.00874    0.01822    0.00129      0.06140      0.00981      0.00164      0.06100      0.01007      
136700  0.09160    0.00874    0.01822    0.00128      0.06140      0.00985      0.00163      0.06100      0.01013      
136800  0.09160    0.00874    0.01821    0.00129      0.06139      0.00985      0.00164      0.06099      0.01013      
136900  0.09159    0.00873    0.01821    0.00129      0.06139      0.00985      0.00164      0.06099      0.01013      
137000  0.09159    0.00873    0.01821    0.00129      0.06138      0.00985      0.00165      0.06099      0.01013      
137100  0.09158    0.00873    0.01821    0.00129      0.06139      0.00983      0.00165      0.06099      0.01010      
137200  0.09158    0.00873    0.01821    0.00129      0.06138      0.00984      0.00165      0.06099      0.01012      
137300  0.09158    0.00873    0.01820    0.00129      0.06139      0.00982      0.00165      0.06099      0.01008      
137400  0.09157    0.00873    0.01820    0.00129      0.06138      0.00983      0.00166      0.06098      0.01011      
137500  0.09157    0.00873    0.01820    0.00129      0.06140      0.00982      0.00164      0.06099      0.01007      
137600  0.09156    0.00872    0.01820    0.00129      0.06139      0.00983      0.00164      0.06100      0.01009      
137700  0.09155    0.00872    0.01820    0.00130      0.06138      0.00984      0.00166      0.06098      0.01012      
137800  0.09155    0.00871    0.01819    0.00129      0.06138      0.00984      0.00165      0.06097      0.01011      
137900  0.09155    0.00872    0.01819    0.00130      0.06138      0.00982      0.00166      0.06098      0.01007      
138000  0.09154    0.00872    0.01819    0.00129      0.06138      0.00985      0.00164      0.06098      0.01012      
138100  0.09154    0.00871    0.01819    0.00129      0.06138      0.00984      0.00165      0.06098      0.01010      
138200  0.09153    0.00871    0.01819    0.00128      0.06138      0.00984      0.00164      0.06099      0.01011      
138300  0.09153    0.00871    0.01819    0.00128      0.06138      0.00984      0.00164      0.06098      0.01010      
138400  0.09153    0.00871    0.01818    0.00129      0.06138      0.00983      0.00165      0.06099      0.01010      
138500  0.09152    0.00871    0.01818    0.00128      0.06139      0.00982      0.00164      0.06100      0.01006      
138600  0.09152    0.00870    0.01818    0.00129      0.06138      0.00982      0.00165      0.06098      0.01007      
138700  0.09151    0.00870    0.01818    0.00130      0.06137      0.00981      0.00166      0.06098      0.01006      
138800  0.09151    0.00870    0.01818    0.00129      0.06137      0.00985      0.00165      0.06098      0.01013      
138900  0.09150    0.00870    0.01817    0.00129      0.06137      0.00984      0.00165      0.06098      0.01012      
139000  0.09150    0.00870    0.01817    0.00129      0.06138      0.00983      0.00164      0.06098      0.01010      
139100  0.09149    0.00870    0.01817    0.00128      0.06138      0.00983      0.00164      0.06098      0.01009      
139200  0.09149    0.00869    0.01817    0.00129      0.06137      0.00981      0.00165      0.06098      0.01006      
139300  0.09148    0.00869    0.01817    0.00129      0.06137      0.00982      0.00165      0.06097      0.01008      
139400  0.09148    0.00869    0.01816    0.00129      0.06136      0.00982      0.00166      0.06097      0.01007      
139500  0.09147    0.00869    0.01816    0.00129      0.06137      0.00982      0.00164      0.06097      0.01008      
139600  0.09146    0.00868    0.01816    0.00129      0.06136      0.00983      0.00165      0.06097      0.01011      
139700  0.09146    0.00868    0.01816    0.00129      0.06136      0.00983      0.00166      0.06095      0.01009      
139800  0.09145    0.00868    0.01816    0.00129      0.06136      0.00984      0.00165      0.06095      0.01010      
139900  0.09145    0.00868    0.01815    0.00129      0.06136      0.00983      0.00165      0.06096      0.01009      
140000  0.09144    0.00868    0.01815    0.00129      0.06136      0.00982      0.00164      0.06097      0.01009      
140100  0.09144    0.00868    0.01815    0.00129      0.06136      0.00983      0.00165      0.06096      0.01009      
140200  0.09144    0.00867    0.01815    0.00129      0.06136      0.00982      0.00166      0.06096      0.01006      
140300  0.09143    0.00867    0.01815    0.00129      0.06135      0.00985      0.00165      0.06095      0.01013      
140400  0.09143    0.00867    0.01814    0.00128      0.06136      0.00983      0.00164      0.06096      0.01010      
140500  0.09142    0.00867    0.01814    0.00129      0.06135      0.00983      0.00165      0.06095      0.01010      
140600  0.09142    0.00867    0.01814    0.00129      0.06135      0.00984      0.00165      0.06094      0.01012      
140700  0.09141    0.00866    0.01814    0.00129      0.06135      0.00984      0.00165      0.06094      0.01012      
140800  0.09141    0.00866    0.01814    0.00129      0.06135      0.00984      0.00165      0.06095      0.01011      
140900  0.09140    0.00866    0.01813    0.00130      0.06135      0.00981      0.00166      0.06095      0.01004      
141000  0.09140    0.00866    0.01813    0.00129      0.06135      0.00983      0.00165      0.06095      0.01008      
141100  0.09139    0.00865    0.01813    0.00129      0.06136      0.00981      0.00165      0.06095      0.01004      
141200  0.09139    0.00865    0.01813    0.00129      0.06135      0.00984      0.00164      0.06095      0.01011      
141300  0.09138    0.00865    0.01812    0.00129      0.06136      0.00982      0.00164      0.06095      0.01006      
141400  0.09138    0.00865    0.01812    0.00129      0.06135      0.00983      0.00165      0.06094      0.01009      
141500  0.09137    0.00864    0.01812    0.00129      0.06135      0.00983      0.00165      0.06094      0.01008      
141600  0.09137    0.00864    0.01812    0.00128      0.06136      0.00983      0.00164      0.06095      0.01009      
141700  0.09137    0.00864    0.01812    0.00129      0.06136      0.00981      0.00165      0.06094      0.01005      
141800  0.09136    0.00864    0.01812    0.00128      0.06135      0.00985      0.00164      0.06094      0.01013      
141900  0.09136    0.00864    0.01811    0.00129      0.06135      0.00983      0.00165      0.06093      0.01009      
142000  0.09135    0.00864    0.01811    0.00129      0.06135      0.00982      0.00165      0.06094      0.01007      
142100  0.09135    0.00864    0.01811    0.00129      0.06135      0.00983      0.00164      0.06094      0.01010      
142200  0.09135    0.00863    0.01811    0.00129      0.06135      0.00984      0.00164      0.06094      0.01012      
142300  0.09134    0.00863    0.01811    0.00129      0.06135      0.00983      0.00165      0.06094      0.01011      
142400  0.09134    0.00863    0.01810    0.00129      0.06135      0.00982      0.00164      0.06094      0.01008      
142500  0.09133    0.00863    0.01810    0.00129      0.06134      0.00986      0.00164      0.06094      0.01015      
142600  0.09133    0.00863    0.01810    0.00128      0.06135      0.00984      0.00164      0.06095      0.01011      
142700  0.09132    0.00862    0.01810    0.00130      0.06133      0.00986      0.00166      0.06091      0.01015      
142800  0.09132    0.00862    0.01810    0.00128      0.06135      0.00985      0.00163      0.06094      0.01013      
142900  0.09132    0.00862    0.01809    0.00129      0.06134      0.00984      0.00165      0.06092      0.01012      
143000  0.09131    0.00862    0.01809    0.00129      0.06134      0.00985      0.00165      0.06093      0.01014      
143100  0.09131    0.00862    0.01809    0.00130      0.06133      0.00985      0.00166      0.06092      0.01013      
143200  0.09130    0.00862    0.01809    0.00130      0.06133      0.00986      0.00167      0.06091      0.01014      
143300  0.09130    0.00861    0.01809    0.00129      0.06133      0.00986      0.00165      0.06092      0.01015      
143400  0.09129    0.00861    0.01808    0.00130      0.06133      0.00985      0.00166      0.06092      0.01014      
143500  0.09129    0.00861    0.01808    0.00129      0.06134      0.00984      0.00165      0.06094      0.01010      
143600  0.09128    0.00861    0.01808    0.00129      0.06134      0.00984      0.00165      0.06094      0.01011      
143700  0.09128    0.00861    0.01808    0.00129      0.06133      0.00984      0.00165      0.06093      0.01011      
143800  0.09127    0.00861    0.01807    0.00129      0.06133      0.00985      0.00165      0.06093      0.01012      
143900  0.09126    0.00860    0.01807    0.00129      0.06133      0.00984      0.00165      0.06092      0.01012      
144000  0.09126    0.00860    0.01807    0.00129      0.06133      0.00984      0.00166      0.06091      0.01012      
144100  0.09126    0.00860    0.01807    0.00129      0.06134      0.00982      0.00164      0.06093      0.01007      
144200  0.09125    0.00859    0.01806    0.00130      0.06133      0.00983      0.00166      0.06092      0.01009      
144300  0.09124    0.00859    0.01806    0.00129      0.06133      0.00983      0.00165      0.06093      0.01010      
144400  0.09124    0.00859    0.01806    0.00129      0.06133      0.00983      0.00165      0.06093      0.01010      
144500  0.09124    0.00859    0.01806    0.00129      0.06132      0.00984      0.00166      0.06092      0.01011      
144600  0.09123    0.00859    0.01806    0.00129      0.06133      0.00983      0.00165      0.06092      0.01009      
144700  0.09123    0.00858    0.01806    0.00129      0.06133      0.00983      0.00165      0.06092      0.01008      
144800  0.09122    0.00858    0.01805    0.00129      0.06133      0.00985      0.00164      0.06093      0.01012      
144900  0.09121    0.00858    0.01805    0.00129      0.06133      0.00984      0.00164      0.06093      0.01012      
145000  0.09121    0.00858    0.01805    0.00128      0.06133      0.00984      0.00164      0.06093      0.01011      
145100  0.09121    0.00858    0.01805    0.00129      0.06133      0.00984      0.00165      0.06091      0.01010      
145200  0.09120    0.00858    0.01805    0.00129      0.06133      0.00984      0.00165      0.06092      0.01009      
145300  0.09120    0.00857    0.01804    0.00129      0.06132      0.00985      0.00166      0.06091      0.01011      
145400  0.09119    0.00857    0.01804    0.00129      0.06133      0.00984      0.00165      0.06093      0.01010      
145500  0.09119    0.00857    0.01804    0.00129      0.06133      0.00983      0.00164      0.06093      0.01009      
145600  0.09119    0.00857    0.01804    0.00129      0.06132      0.00983      0.00165      0.06092      0.01010      
145700  0.09118    0.00857    0.01803    0.00129      0.06132      0.00984      0.00166      0.06091      0.01010      
145800  0.09117    0.00856    0.01803    0.00129      0.06132      0.00983      0.00165      0.06091      0.01009      
145900  0.09117    0.00856    0.01803    0.00129      0.06131      0.00985      0.00166      0.06091      0.01012      
146000  0.09116    0.00856    0.01803    0.00129      0.06131      0.00984      0.00165      0.06091      0.01010      
146100  0.09116    0.00856    0.01803    0.00129      0.06131      0.00984      0.00165      0.06091      0.01011      
146200  0.09116    0.00856    0.01802    0.00129      0.06131      0.00984      0.00166      0.06091      0.01011      
146300  0.09115    0.00856    0.01802    0.00129      0.06132      0.00985      0.00164      0.06091      0.01013      
146400  0.09115    0.00856    0.01802    0.00128      0.06132      0.00984      0.00164      0.06092      0.01012      
146500  0.09114    0.00856    0.01802    0.00129      0.06131      0.00984      0.00165      0.06090      0.01012      
146600  0.09113    0.00855    0.01801    0.00128      0.06131      0.00985      0.00164      0.06090      0.01013      
146700  0.09113    0.00855    0.01801    0.00128      0.06132      0.00985      0.00164      0.06091      0.01012      
146800  0.09113    0.00855    0.01801    0.00128      0.06132      0.00984      0.00164      0.06091      0.01011      
146900  0.09112    0.00854    0.01801    0.00129      0.06131      0.00984      0.00165      0.06092      0.01010      
147000  0.09112    0.00854    0.01801    0.00129      0.06131      0.00983      0.00165      0.06091      0.01008      
147100  0.09111    0.00854    0.01801    0.00129      0.06131      0.00984      0.00165      0.06091      0.01010      
147200  0.09111    0.00854    0.01801    0.00128      0.06132      0.00982      0.00164      0.06091      0.01007      
147300  0.09110    0.00853    0.01800    0.00129      0.06131      0.00984      0.00165      0.06090      0.01009      
147400  0.09110    0.00853    0.01800    0.00129      0.06131      0.00983      0.00165      0.06091      0.01010      
147500  0.09109    0.00853    0.01800    0.00129      0.06131      0.00984      0.00165      0.06089      0.01010      
147600  0.09109    0.00853    0.01800    0.00129      0.06130      0.00984      0.00166      0.06089      0.01009      
147700  0.09108    0.00853    0.01800    0.00128      0.06131      0.00984      0.00164      0.06090      0.01012      
147800  0.09108    0.00853    0.01799    0.00128      0.06131      0.00982      0.00164      0.06091      0.01007      
147900  0.09108    0.00853    0.01799    0.00128      0.06131      0.00986      0.00164      0.06089      0.01014      
148000  0.09107    0.00853    0.01799    0.00128      0.06130      0.00985      0.00164      0.06089      0.01012      
148100  0.09107    0.00852    0.01799    0.00129      0.06129      0.00987      0.00165      0.06088      0.01015      
148200  0.09106    0.00852    0.01799    0.00129      0.06130      0.00984      0.00165      0.06089      0.01009      
148300  0.09106    0.00852    0.01798    0.00129      0.06129      0.00985      0.00166      0.06089      0.01010      
148400  0.09105    0.00852    0.01798    0.00129      0.06129      0.00986      0.00165      0.06089      0.01013      
148500  0.09105    0.00852    0.01798    0.00129      0.06130      0.00984      0.00164      0.06090      0.01010      
148600  0.09104    0.00852    0.01798    0.00129      0.06129      0.00984      0.00166      0.06088      0.01009      
148700  0.09104    0.00851    0.01798    0.00128      0.06130      0.00984      0.00164      0.06090      0.01009      
148800  0.09104    0.00851    0.01797    0.00129      0.06129      0.00984      0.00166      0.06089      0.01009      
148900  0.09103    0.00851    0.01797    0.00129      0.06129      0.00985      0.00164      0.06089      0.01012      
149000  0.09103    0.00851    0.01797    0.00129      0.06129      0.00985      0.00165      0.06090      0.01012      
149100  0.09102    0.00851    0.01797    0.00129      0.06129      0.00984      0.00165      0.06089      0.01010      
149200  0.09102    0.00851    0.01797    0.00128      0.06129      0.00984      0.00165      0.06089      0.01010      
149300  0.09101    0.00851    0.01796    0.00128      0.06130      0.00984      0.00163      0.06090      0.01009      
149400  0.09101    0.00850    0.01796    0.00128      0.06129      0.00986      0.00164      0.06089      0.01013      
149500  0.09100    0.00850    0.01796    0.00128      0.06129      0.00985      0.00163      0.06089      0.01012      
149600  0.09100    0.00850    0.01796    0.00129      0.06128      0.00984      0.00165      0.06088      0.01010      
149700  0.09099    0.00850    0.01796    0.00129      0.06129      0.00982      0.00164      0.06088      0.01007      
149800  0.09099    0.00850    0.01795    0.00128      0.06128      0.00984      0.00164      0.06088      0.01010      
149900  0.09098    0.00850    0.01795    0.00129      0.06128      0.00983      0.00166      0.06087      0.01009      
150000  0.09098    0.00849    0.01795    0.00129      0.06128      0.00983      0.00165      0.06086      0.01009      

---------------------------------------------------------------
Time used for training = 283207.812500 s.
---------------------------------------------------------------


---------------------------------------------------------------
Finished running nep.
---------------------------------------------------------------

