  3.3153644e-01   1.4566889e-04
  5.1159579e-03   4.6791894e-05
  2.6235488e-01   1.1425182e-04
  1.3796887e-01   1.6498151e-04
 -9.2589790e-01   7.6613913e-05
 -1.0701678e+00   7.9938298e-05
  7.1476448e-01   2.0694923e-05
  9.2587066e-01   5.1848132e-05
 -1.1957006e+00   1.4686258e-05
  8.5571837e-01   2.3232278e-04
  1.7596348e-03   4.9974193e-04
 -6.0637099e-01   2.6139396e-04
  5.3803466e-02   2.9203232e-04
  2.2745976e-04   5.8695540e-04
  2.3037609e-01   1.0510840e-03
  8.6206758e-01   7.5533154e-04
  1.8595532e-01   3.2581590e-04
 -3.8639503e-03   4.0159485e-04
 -1.1270951e-01   1.6908206e-04
  6.4822441e-01   2.5659989e-04
  1.7909524e-01   2.0060666e-04
 -3.5669222e-01   4.7150103e-04
  2.1639907e-01   1.2916487e-04
  7.1113473e-01   1.4894379e-04
 -1.4903139e-02   6.2233181e-04
 -5.1757473e-01   1.5567934e-04
 -4.6250252e-03   1.3285346e-04
  2.2390346e-01   8.6287859e-05
  2.0329405e-01   1.9606714e-04
  3.4642598e-01   1.6649356e-04
  2.5884396e-01   1.0417970e-03
 -1.3401914e-05   3.4372424e-04
 -5.9546553e-02   2.8559251e-04
 -6.1844949e-02   4.5140419e-05
  3.2498670e-01   7.6085867e-05
  2.4223840e-03   1.1326496e-03
  2.0096021e-02   4.9638952e-04
  1.8586097e-03   3.2548083e-04
  8.9843664e-04   7.0124213e-04
  5.9709215e-04   4.6363598e-04
 -3.9661539e-01   1.6460849e-03
 -3.4799222e-02   6.8289344e-04
 -3.9599545e-04   4.0684303e-04
  5.2543386e-05   4.1423924e-04
 -5.4906763e-02   7.5987708e-05
  2.3528817e-01   1.0553446e-04
  3.2457091e-02   1.0716819e-04
 -1.0615472e-01   1.5518274e-04
 -3.2872270e-04   1.0241922e-04
  3.8439497e-01   6.1212362e-05
  1.5191721e-04   7.9062511e-06
  2.5611971e-02   1.1997871e-04
  4.4107395e-01   3.3633936e-05
  2.2284554e-01   1.2858813e-04
  5.7125956e-01   9.0413471e-04
 -5.4547960e-01   6.5679965e-04
 -2.5308359e-01   1.6669737e-04
 -4.9546058e-03   4.0213505e-04
 -8.0889731e-04   5.6644174e-04
  2.8656412e-02   4.4480944e-04
 -4.6945643e-02   2.2726021e-04
  3.0042708e-01   5.7717552e-04
  4.7100824e-01   3.5357638e-04
  1.3467916e-03   2.0602903e-04
  2.7618369e-01   1.4312701e-04
 -1.7763507e-03   5.5968612e-05
  6.0800427e-01   1.1324805e-04
 -1.3514986e-02   1.8773593e-04
  5.3259194e-02   3.3796890e-04
  7.5113028e-02   8.6856759e-05
 -8.4796958e-02   5.6500950e-05
 -2.4835894e-01   2.8330940e-05
  3.8443696e-02   5.1445083e-04
  4.2887408e-01   7.5512457e-05
 -7.0179312e-04   3.9446971e-04
  9.4828300e-02   6.4375048e-04
  5.9528500e-02   4.5722656e-04
  3.1210255e-02   2.7508909e-04
  1.3429168e-01   2.5641598e-04
 -4.6091851e-02   7.9948717e-05
  5.1915956e-01   4.4370990e-04
 -2.5102540e-03   4.5765191e-04
 -1.4509022e-04   7.5860595e-04
  1.7886973e-04   7.1875629e-04
  1.1927451e-02   1.7758778e-04
  1.3294636e-04   4.3545169e-04
 -2.0302261e-05   3.5688136e-04
 -9.1516366e-04   3.2690121e-04
  1.1509736e-03   2.8327905e-04
  4.4466599e-04   8.0794474e-04
 -2.2938282e-03   3.8973810e-04
  1.2328554e-04   3.5021247e-04
  2.8354375e-04   2.7868772e-04
 -1.2446153e-03   4.9004907e-04
  7.8277085e-03   5.3766373e-05
  1.2457272e-03   6.0596870e-04
  3.8354690e-03   8.2050642e-04
 -7.2504568e-04   3.8362376e-04
  6.6808646e-04   6.0116866e-04
 -1.1576581e-03   4.0575684e-04
 -8.2317181e-04   4.9395836e-04
 -4.3398078e-04   6.3241465e-04
  1.9790218e-03   5.0921680e-04
  2.9588039e-03   8.7456306e-04
  2.3482973e-03   3.3615503e-04
  2.0469651e-03   3.8561580e-04
  4.2923531e-03   1.9928617e-04
  3.0935076e-03   5.3646212e-04
  3.0649835e-04   4.5978691e-04
 -5.2789989e-04   3.9905854e-04
 -1.2770887e-03   6.2583800e-04
  3.5417310e-04   4.4547609e-04
 -3.0678493e-04   1.1705608e-04
  2.0750427e-04   1.6839127e-04
 -1.6331219e-03   4.9477955e-04
 -6.0548197e-04   1.8784411e-04
 -8.8399189e-04   5.2717869e-04
  4.0981532e-03   3.0760266e-04
 -5.9584907e-04   7.7268138e-04
 -1.2679379e-04   2.0082619e-04
  3.0714730e-03   8.1133854e-05
 -2.9723914e-04   5.4256176e-04
  1.6421442e-03   6.7656994e-04
  6.2986114e-03   5.6054245e-04
  1.9399258e-03   1.6248913e-04
  5.3279521e-04   2.5980661e-04
  7.9729920e-04   7.2840188e-04
 -1.6160411e-06   8.6318405e-04
 -6.4885285e-04   2.8153230e-04
 -1.8479271e-04   6.5679272e-04
 -7.2465703e-04   2.7375028e-04
 -5.3703277e-03   4.1001188e-04
  4.0529878e-04   1.7523306e-04
 -9.4410585e-04   5.1416340e-04
  1.7955470e-04   8.1609521e-04
 -2.8633559e-03   3.3923221e-04
 -1.9956219e-01   4.5325502e-04
  1.0794696e-03   3.9242904e-04
  4.7247102e-03   1.2301205e-04
 -2.6595267e-04   3.0293269e-04
 -6.6003110e-04   3.4956131e-04
  7.9988397e-04   5.7300919e-04
 -4.3230876e-04   3.2154488e-04
  2.2629465e-03   3.7515356e-04
  4.8197820e-03   2.7105876e-04
  2.5718540e-03   3.8561766e-04
 -1.1664748e-03   3.4350064e-04
 -2.7802112e-03   3.1919443e-04
  3.6854710e-04   5.2311923e-04
 -4.2889495e-03   7.8298053e-04
 -1.2195583e-03   4.6408380e-04
 -6.5175182e-04   3.9014762e-04
 -4.4734352e-03   6.0693373e-04
  1.2607964e-04   6.8888708e-04
  8.0481707e-04   6.3334056e-04
  4.5213004e-04   3.0001026e-04
 -1.4728322e-03   6.5601594e-04
  9.1798743e-04   8.9972978e-04
  5.3914497e-04   6.7870010e-04
  8.9012734e-05   3.1528945e-04
 -1.1497971e-03   3.1898485e-04
 -1.7395664e-03   1.5639389e-04
 -2.8737090e-03   2.6082920e-04
 -2.6722593e-04   1.1542081e-04
 -8.8800711e-04   5.0337444e-04
 -4.3914816e-04   3.7381894e-04
  5.2589276e-03   2.4098557e-04
  1.9362995e-03   2.7553207e-04
 -7.0022931e-04   8.2086795e-04
  3.5018520e-03   6.2800315e-04
  8.4061531e-04   4.3660917e-04
 -7.5583038e-04   7.9419761e-04
  4.6611915e-04   6.8404461e-04
  4.5077447e-03   3.5566569e-04
 -5.5747572e-04   3.0175722e-04
  1.4454558e-03   4.9065513e-04
 -9.5732417e-04   3.5713191e-04
  1.6741228e-03   4.1656141e-04
 -1.3544844e-03   4.7476008e-04
 -1.1656873e-03   1.3004545e-04
  1.6606511e-03   5.2501005e-04
  1.5683766e-02   2.2272131e-04
 -9.3731850e-02   3.0486254e-04
  6.1738724e-04   3.8016713e-04
 -1.3538164e-01   9.2369621e-05
 -6.0499813e-03   3.1419753e-04
  3.0487517e-04   8.6413679e-04
  1.2746593e-03   3.3656854e-04
  2.9350459e-03   2.5527261e-04
 -1.2446918e-03   8.5119018e-04
  4.8840349e-04   4.7681827e-04
  1.8793375e-04   1.9469293e-04
 -1.0763407e-03   5.9394579e-04
 -6.6897306e-03   9.2596805e-04
  5.6108704e-04   2.8860202e-04
 -1.2201550e-03   2.6097803e-04
 -6.8136491e-03   3.0518055e-04
  5.3313253e-03   3.2773690e-04
 -2.0780677e-03   3.1883488e-04
 -9.7830093e-04   3.5326404e-04
 -3.3099444e-03   9.2338549e-04
 -1.0963844e-03   2.7127244e-04
  9.2879799e-04   2.6686984e-04
  3.6785393e-03   3.6004043e-04
 -2.1693590e-03   4.1275003e-04
  7.2745676e-04   5.5743766e-04
 -5.8924535e-04   5.0560007e-04
 -6.0308672e-04   2.4347994e-04
  8.0451812e-04   3.6388266e-04
  4.5808114e-04   4.7136756e-04
 -2.2622962e-03   1.8863792e-04
 -1.1067801e-03   4.8409443e-04
  3.8460048e-04   7.5122435e-04
  1.0052086e-03   3.5647763e-04
 -9.4140589e-04   4.5909185e-04
  7.6668832e-04   7.6350762e-04
 -6.8353146e-04   4.6548754e-04
  2.5804888e-04   3.9488947e-04
  1.3178773e-03   2.7631322e-04
  4.0730140e-03   2.3966833e-04
  4.9529155e-03   5.7990046e-04
  5.6495296e-04   1.9885678e-04
  1.5484570e-03   3.6859428e-04
 -8.3749433e-04   4.6165645e-04
 -1.4938806e-03   2.4627717e-04
 -1.6907684e+00   2.0254849e-04
  1.7503720e-05   2.3750057e-04
 -5.0344414e-01   5.6632992e-04
  8.5286712e-03   1.5817404e-04
 -1.0425369e-03   6.2525773e-04
  2.6162856e-04   3.1187659e-04
 -3.6586009e-03   6.3842465e-04
  3.5920966e-04   4.5713893e-04
  8.8967790e-05   6.6260807e-04
 -5.0486820e-03   3.9149757e-04
 -8.3689281e-04   1.6284580e-04
  3.3022641e-04   3.7471112e-04
  1.5466567e-03   9.1866427e-04
  3.5880872e-03   4.8825025e-04
  1.8327511e-03   1.9357742e-04
  1.9474888e-05   1.2906389e-04
 -6.5196055e-04   6.7512359e-04
  2.0942932e-03   5.6184438e-04
 -8.7796088e-04   5.9492118e-04
  1.3472222e-03   5.3584861e-04
  3.1050382e-05   4.3684765e-04
 -2.0598136e-03   7.7239389e-04
  4.4268779e-02   3.6543218e-04
  1.8728510e-03   7.4360741e-04
  2.5011417e-03   2.9727767e-04
  7.6907361e-04   1.7992166e-04
 -1.4074272e-04   3.4575743e-04
 -8.6716551e-04   2.1915029e-04
  1.1594759e-03   4.9676496e-04
 -6.6837418e-04   3.6072533e-04
 -2.0895933e-03   6.0000463e-04
 -4.2252295e-04   4.2695788e-04
  1.4928874e-03   2.8290559e-04
  5.0435163e-05   4.8814900e-04
  3.3671905e-03   1.2762162e-04
  1.5530079e-03   4.7086010e-04
 -5.1894835e-03   4.5504229e-04
  9.4396330e-04   6.1911525e-04
  3.0626057e-04   3.7100897e-04
  1.3106558e-03   3.5601654e-04
  1.8755294e-03   1.8859578e-04
  5.6455783e-03   3.6328431e-04
 -1.0673379e-03   3.1382614e-04
 -2.1244187e-03   1.0572410e-04
 -4.3176557e-04   1.9150450e-04
 -2.7389690e-01   2.2037751e-04
  2.2078983e-03   2.9409546e-04
  2.9154822e-01   4.2957815e-04
  5.5596686e-04   5.6740281e-04
 -6.3689868e-04   1.1738648e-03
 -2.7318834e-05   3.9097274e-04
 -1.7096165e-01   8.4624940e-04
  9.2039059e-05   6.6809502e-04
  1.5855130e-03   8.8063651e-05
  2.7806202e-03   1.0083197e-03
 -2.1609454e-03   3.2116350e-04
 -3.7634672e-04   5.2153191e-04
 -1.2149654e-03   3.8301581e-04
  4.4488469e-03   4.3780910e-04
  7.8174323e-02   5.9140887e-04
 -8.5723077e-05   4.8663840e-04
 -1.0021352e-01   1.1051977e-04
  4.9667149e-03   3.6893398e-04
  4.3938803e-03   4.0345572e-04
 -3.4249973e-04   1.9533878e-04
 -4.6778256e-01   2.4986389e-04
 -1.6810504e-03   1.1398593e-04
  9.3089141e-02   3.0635364e-04
 -8.7540271e-04   3.9663739e-04
 -2.6784450e-04   4.2792154e-04
 -5.1253958e-04   6.3578284e-04
 -3.2736408e-03   4.4117568e-04
 -3.6885664e-03   8.9089712e-04
  2.1203469e-04   3.8814879e-04
 -3.3289010e-03   4.3885948e-04
  4.1501815e-04   4.6135136e-04
 -2.8374809e-04   6.8985095e-04
  2.1629571e-04   6.2705338e-04
 -1.2947852e-03   2.8830324e-04
 -6.5139704e-04   6.4886385e-04
  6.8474648e-04   3.7461292e-04
 -2.0211786e-03   7.6052587e-04
  2.3527823e-04   4.9125170e-04
 -2.2473530e-05   4.3849481e-04
 -1.2877159e-03   1.0457815e-03
 -1.2442481e-04   3.4939460e-04
 -8.7137438e-02   3.5526045e-05
  2.7756027e-03   2.5062769e-04
 -2.1015892e-03   1.3332788e-04
 -4.4118607e-04   5.2846241e-04
  2.2542244e-03   3.1470260e-04
  1.1660875e-02   4.4901019e-05
  4.9956660e-03   2.4684428e-04
 -4.7600917e-03   6.1754283e-04
  3.7612608e-03   2.5936961e-04
  8.4213482e-04   6.4931880e-04
 -5.1464344e-04   5.5178168e-04
 -1.2585149e-03   3.7249064e-04
  1.5580983e-05   2.5790994e-04
  1.1100022e-03   5.7535240e-04
  2.4959783e-03   7.4950029e-04
  4.9222389e-04   5.5440998e-04
 -5.1119586e-04   8.2940399e-04
  3.3523431e-03   5.3555350e-04
  3.4770611e-04   3.9315259e-04
 -1.9754218e-03   3.7371527e-04
 -2.0715485e-04   3.4354976e-04
 -1.1953640e-03   3.2507820e-04
 -1.4835244e-04   6.3928030e-04
  2.0457329e-03   5.8599992e-04
  1.3948837e-04   6.7531795e-04
 -2.5713314e-05   2.2878875e-04
  1.2956968e-03   2.8154583e-04
  1.6092218e-04   1.0647533e-03
  9.6700742e-04   4.5960251e-04
 -2.9635774e-03   7.0852524e-04
 -1.6702295e-03   3.7795008e-04
  9.1272831e-04   9.8488410e-04
  1.6174252e-03   7.0498599e-04
 -5.5574821e-03   1.3818755e-04
  1.9928028e-03   3.5805380e-04
 -3.7675858e-03   3.4740072e-04
  9.0755487e-04   1.7804615e-04
  2.1400156e-03   4.9127010e-04
  8.5379748e-04   2.5255833e-04
 -5.1947962e-04   8.5659401e-04
  7.6399557e-03   6.8846165e-04
  5.8787863e-04   3.2143280e-04
  1.1668007e-03   3.3482575e-04
  7.4513513e-04   2.2090270e-04
 -6.1829149e-04   2.2616863e-04
 -5.0623763e-01   8.6968161e-05
 -3.7273287e-04   5.2857347e-04
 -1.3106098e-02   7.4257339e-05
 -1.5014340e-03   6.8407512e-04
 -4.4492617e-02   1.0300498e-04
 -1.9459383e-03   5.0255324e-04
  4.7224984e-03   7.0010935e-04
  3.5065117e-03   5.4950186e-04
  8.8429992e-04   3.7144287e-04
 -2.7324895e-03   3.9154044e-04
  3.6238101e-03   6.2607147e-04
 -2.3507997e-03   2.4047354e-04
 -6.2928875e-03   4.7916133e-04
  8.0619846e-03   4.5268269e-05
  6.9700843e-03   3.3054483e-04
  1.6822834e-03   4.6430447e-04
  1.9634317e-03   2.8000915e-04
 -7.7409518e-04   2.3113360e-04
  6.8371785e-03   3.0167040e-04
 -1.5514514e-03   4.0468271e-04
  3.8068839e-03   7.5857586e-04
  3.4219152e-03   1.0862503e-04
  7.7899598e-04   3.6571262e-04
 -9.6733999e-03   5.9994138e-05
  1.4299074e-03   5.2434328e-04
  7.3314972e-02   4.5088533e-04
  6.9398474e-04   1.0445269e-03
  1.2213296e-03   4.0006521e-04
  5.1154115e-04   3.4212190e-04
 -3.5704169e-04   4.9997406e-04
 -1.3035409e-04   2.5426724e-04
 -3.4102299e-03   5.1193469e-04
  2.4947135e-03   4.8026681e-04
 -6.1555341e-04   5.7418324e-04
 -8.1782416e-04   3.5144074e-04
 -7.6820573e-04   3.8677538e-04
 -4.6003808e-04   3.7065663e-04
 -4.6261260e-04   2.0559352e-04
 -8.3596176e-05   2.7269410e-04
 -5.4702610e-03   6.9014035e-04
 -5.1569135e-04   5.8880524e-04
 -3.3721677e-04   4.0027962e-04
  5.2424398e-04   1.5985951e-04
 -3.4690549e-04   3.7582533e-04
 -3.1267083e-03   7.3685031e-04
 -6.7802699e-04   4.7133656e-04
  6.8540648e-05   2.9786289e-04
  7.7153894e-04   5.5599597e-04
  8.5705565e-04   6.6209381e-04
 -1.8193000e-03   3.9333518e-04
 -4.1061207e-03   4.7661964e-04
  2.5656226e-03   2.9521395e-04
  5.3625903e-04   3.7203394e-04
 -1.2191988e-03   6.0587225e-04
 -9.0119342e-04   4.1959451e-05
  2.5541414e-04   4.1403441e-04
  6.9773220e-04   6.0525967e-04
  3.1864778e-03   5.5119570e-04
 -8.3310832e-04   1.0280666e-03
  2.8009950e-03   1.8766485e-04
 -2.3709873e-02   9.7379379e-04
  3.9477987e-04   4.6955841e-04
  3.4647551e-03   6.1953237e-04
 -5.5359874e-04   8.2375703e-04
  1.2948543e-03   4.0389679e-04
  9.0277445e-04   2.2860395e-04
 -2.3716480e-04   6.1649992e-04
  1.0146532e-03   3.1096317e-04
 -7.0262409e-05   7.1265257e-04
 -6.3935359e-04   2.8069410e-04
 -1.7134935e-04   1.0033741e-03
 -3.2164752e-03   8.4970455e-04
 -8.7107019e-04   9.4948884e-04
 -9.1508392e-04   4.6089399e-04
 -5.4337794e-04   2.4783972e-04
  8.9759444e-04   7.3269452e-04
 -2.6777848e-03   2.3594081e-04
 -3.8100284e-04   5.4166664e-04
 -5.5546866e-04   6.2201987e-04
  2.1366097e-03   3.1262511e-04
 -7.0665742e-04   7.0701813e-04
 -2.4333541e-04   7.6274335e-04
  4.2382060e-04   3.1305637e-04
 -3.2035182e-03   7.1000180e-04
  5.2121729e-01   2.0716817e-04
 -3.7390989e-01   1.1897222e-04
  2.6495364e-01   4.1837973e-04
  7.5538832e-01   5.1257917e-05
  2.3008095e-01   1.0687421e-04
 -1.3170981e-01   1.2003415e-04
 -2.0906541e-01   2.9361441e-05
  1.7624868e+00   2.4234466e-04
  4.5134008e-01   1.1518468e-04
 -4.5789546e-01   1.0527176e-04
  3.6369580e-01   4.0595443e-04
  3.0620565e-04   4.3400898e-04
 -7.6402152e-01   5.4580920e-05
  4.1145092e-01   3.9432998e-04
  5.9594341e-02   3.0613903e-04
  8.0823690e-02   1.9088641e-04
  1.4285880e-01   1.4203334e-04
  5.2763406e-02   5.8007176e-04
  1.2594027e-02   2.9881886e-04
 -2.5690433e-01   4.5781431e-04
 -2.6509006e-02   9.5715957e-05
 -1.2325581e+00   3.1639726e-04
  2.8724186e-03   3.5327143e-04
 -1.3894211e-01   5.0261471e-05
  3.3992928e-02   1.3155185e-04
  1.0130317e-01   8.3583676e-05
 -2.7142921e-01   1.7395860e-04
  5.0314009e-01   1.5913317e-04
  2.7070433e-01   4.5787421e-04
  5.1031017e-01   4.7226757e-05
  3.0721901e-02   1.8056179e-04
  9.6440338e-02   1.0222662e-03
  4.3966669e-01   9.0753201e-05
 -3.9910369e-02   1.6307995e-04
 -1.1202339e-02   5.4431472e-05
  3.2593304e-04   3.4892431e-04
  1.2042272e-01   3.6623408e-04
 -1.9503149e-03   6.7971664e-04
  2.6223660e-04   4.5128123e-04
 -3.6875170e-04   1.0049636e-04
  4.6938256e-04   3.2649105e-04
  1.5168311e-02   3.3218419e-04
  1.0588014e-03   8.0571178e-04
 -4.7489190e-03   1.3262645e-04
  2.3370840e-04   1.7210259e-04
  1.6345322e-02   2.6957146e-04
  6.6992283e-02   4.4807961e-04
  7.5661729e-04   3.3914845e-04
 -1.1727740e-03   4.4078028e-04
 -2.4410219e-01   1.9706364e-04
  6.2928121e-03   2.5139854e-04
 -1.2247074e-01   9.1323216e-04
 -4.2287598e-04   1.0572570e-04
 -1.6487886e-03   4.4673271e-04
 -6.4630772e-04   9.2602172e-04
  3.2841502e-04   6.5230584e-04
 -2.1835867e-02   1.6861768e-04
  1.3394669e-03   2.9571992e-04
  8.6041116e-05   8.9156459e-04
 -1.3981094e-03   4.1225148e-04
  2.5413577e-03   3.6554757e-04
 -2.9261501e-03   2.1208011e-04
 -4.8354282e-03   7.3332223e-04
 -2.2499214e-01   1.2803744e-04
 -2.6737805e-02   2.6280500e-04
  3.1891700e-03   1.6099255e-04
 -4.9836203e-02   1.1989909e-04
 -2.3981815e-04   2.3127590e-04
 -2.3056697e-03   7.2515354e-04
 -4.5493585e-03   6.0227587e-05
 -8.2834967e-04   2.6971579e-04
  1.6377364e-01   1.6455648e-04
 -3.2666915e-03   2.9518845e-04
  1.5643505e-05   2.3784702e-04
 -1.3775415e-03   5.7148602e-04
 -3.4421613e-04   5.5829773e-04
  5.6760840e-04   5.7766278e-04
 -2.4216585e-03   3.3203262e-04
  1.9548075e-04   6.2882085e-04
 -6.7866483e-04   6.2270515e-04
 -5.6017139e-03   2.5265399e-04
  2.3969000e-03   4.9018953e-04
  8.3199666e-05   2.4160981e-04
 -7.4821879e-04   5.6262879e-04
 -4.8109647e-04   3.9099043e-04
 -5.0593237e-04   6.6281098e-04
 -8.4567838e-04   5.8172509e-04
  1.2021044e-02   2.3935710e-04
  1.0021353e-03   2.5803797e-04
  2.9452390e-04   3.9230619e-04
 -1.3834366e-04   2.1950730e-04
 -5.3764610e-03   1.0977776e-03
 -6.4619945e-04   1.7303700e-04
  1.2374080e-03   4.0632856e-04
 -4.2675948e-04   4.3841847e-04
 -9.1856305e-04   4.2202233e-04
  6.1472022e-04   3.4020620e-04
 -9.3444157e-04   8.0344477e-04
  1.3094074e-03   6.8957527e-04
  6.0007756e-04   3.5980780e-04
  6.7387230e-04   2.3182432e-04
  1.9894403e-03   2.3520298e-04
  4.5859837e-03   3.6014168e-04
  6.1110489e-04   1.0574140e-03
  2.4030774e-03   7.5717655e-04
  3.4081654e-04   6.4902642e-04
  2.0277139e-03   7.3410891e-04
  2.6192577e-04   4.1090007e-04
 -1.4514456e-04   2.7923562e-04
  1.1549225e-03   4.3088468e-04
  3.0023232e-04   2.9419584e-04
  3.1927208e-04   5.1821180e-04
 -2.7568825e-04   2.5815575e-04
 -1.5366465e-04   1.6082714e-04
  1.1280443e-03   6.0133717e-04
 -3.1535729e-04   3.7395078e-04
 -1.3393048e-03   8.0052641e-04
  7.3122478e-04   4.1324072e-04
  7.4196345e-04   4.3734437e-04
 -3.8889883e-04   3.4632868e-04
 -9.1032684e-04   5.4085330e-04
 -2.2224905e-03   4.5207638e-04
 -1.8938925e-03   2.9910993e-04
  4.8837420e-01   9.4643983e-05
  2.5331031e-04   3.0331672e-04
 -1.7019631e-02   7.5155060e-04
  5.5755609e-06   4.3823605e-04
 -3.4079293e-03   5.2107335e-04
  1.1199358e-03   6.6620565e-04
  2.7309608e-04   3.4857506e-04
  1.1397647e-03   6.7141786e-04
  1.9317808e-03   3.6868529e-04
 -2.3952173e-03   3.7918711e-04
 -1.0076402e-01   2.5074163e-05
 -2.4269114e-04   2.5885584e-04
  1.4184043e-04   2.9512329e-04
  1.0974945e-03   1.3254631e-04
  1.0157037e-03   6.0134282e-04
  1.7658417e-03   3.6334901e-04
 -1.8132360e-03   3.2825177e-04
  1.2950841e-01   1.8377017e-04
  1.0015023e-01   1.6956459e-04
 -6.7626580e-04   7.2614040e-04
 -1.9590203e-03   2.0960017e-04
  9.0388284e-04   7.6900417e-04
  4.2213380e-04   6.0131197e-04
  5.7119416e-04   4.3612751e-04
 -1.5845604e-03   4.5545754e-04
 -7.6302036e-04   2.7166185e-04
 -1.4876862e-03   4.9095007e-04
 -4.7586598e-03   3.0825791e-04
 -2.0169152e-03   2.7017770e-04
 -5.0115962e-02   7.3084528e-05
  1.9131004e-04   4.6140648e-04
  4.5485620e-04   4.7601515e-04
  4.0210591e-04   1.0946505e-04
 -7.4480061e-04   3.0291089e-04
 -9.7566604e-04   1.9816851e-04
  3.5991538e-03   1.3515732e-04
  1.5845818e-03   1.8146131e-04
 -2.9537627e-03   3.7364013e-04
  7.4404711e-04   3.6033860e-04
 -2.4186883e-03   3.3834550e-04
  3.2098102e-04   3.2145664e-04
 -1.9416127e-04   3.2859432e-04
 -2.1516331e-05   4.5540338e-04
 -7.6324528e-04   4.8451716e-04
 -5.2216987e-04   1.5837350e-04
  3.6291877e-04   5.7416887e-04
  6.6847872e-04   6.9195265e-04
 -8.4350968e-04   3.0555768e-04
  8.8680717e-05   2.9690919e-04
  1.1995432e-03   6.4921775e-04
 -7.4767374e-04   5.5088365e-04
 -1.1266003e-03   1.6258558e-04
 -4.9460877e-04   8.1494980e-04
 -1.7278459e-02   2.7791399e-04
  2.9997665e-02   8.3655113e-04
  2.1828371e-03   2.3328770e-04
 -1.2266564e-03   4.1739072e-04
 -5.4412358e-04   1.8862836e-04
 -1.1523004e+00   1.7023287e-04
  8.6144412e-01   1.3897489e-04
 -6.5721888e-03   5.1176082e-04
 -6.1779422e-01   5.2056130e-05
 -1.1112847e-01   4.2924640e-04
 -1.3155767e-02   1.6545330e-04
 -1.1436285e-03   2.7263627e-04
  2.4679836e-03   6.8442529e-04
 -3.7408706e-03   1.3571016e-04
  2.8590343e-04   8.1206911e-04
  2.4658980e-04   8.1932382e-04
 -1.1160090e-03   4.1512950e-04
 -4.6989121e-03   5.9370330e-04
 -4.1533229e-03   2.4627548e-04
  1.1852403e-04   3.5296765e-04
 -9.5272636e-01   3.0329486e-04
  1.0700474e-03   2.3992834e-04
 -1.2104580e-01   6.1603892e-04
 -8.8376255e-04   3.0236770e-04
 -1.1780579e-03   1.6148439e-04
  2.2172068e-01   3.6850158e-04
  1.2654876e-02   2.9015177e-04
  1.4015968e-01   3.0029088e-04
 -1.1390833e-03   9.7479147e-05
  5.8819959e-04   4.2201034e-04
 -4.5611835e-04   1.4070961e-04
 -1.4355180e-03   4.9285777e-04
 -2.9713567e-03   1.0752347e-03
 -2.2484193e-04   2.1381090e-04
  6.0268963e-04   4.4324360e-04
  8.8809530e-04   3.2300455e-04
 -1.6356439e-04   4.7149247e-04
 -2.5586265e-03   4.5469817e-04
 -6.0362759e-04   7.9146127e-04
  2.3718616e-03   4.0183406e-04
 -4.0680490e-04   4.5815983e-04
  4.0626734e-02   1.2080058e-04
 -5.6797086e-04   4.9235305e-04
  6.0847038e-03   3.4401723e-04
  5.5502453e-03   2.8268839e-04
 -1.3229664e-03   5.4655585e-04
  1.7510868e-04   2.8549499e-04
 -3.8334550e-04   3.2448303e-04
 -1.7027727e-03   2.5910547e-04
  4.6513323e-04   1.6490946e-04
  4.1317455e-03   1.7827743e-04
 -1.6530426e-01   2.8892001e-04
  1.8198173e-03   1.1051079e-04
  4.8541534e-04   9.0649253e-04
  5.8675121e-04   3.9849879e-04
 -2.1172287e-04   3.8876350e-04
  2.0239018e-03   1.8994165e-04
  8.8798836e-02   1.9495029e-04
  9.9689401e-05   2.0095010e-04
  5.0218012e-03   1.5086750e-04
  8.4510557e-02   6.4938118e-05
 -8.4706895e-05   3.3677992e-04
  8.0337329e-03   2.5011736e-04
  1.0816269e-03   4.4009584e-04
  7.3807727e-04   2.5543902e-04
  7.7373313e-04   3.6207488e-04
  4.3584715e-04   2.9301373e-04
 -4.6521385e-04   6.7433470e-04
  8.5397618e-04   3.4796572e-04
 -1.1559898e-03   3.6946940e-04
 -2.7453308e-03   2.6501287e-04
  6.1002902e-05   1.7957330e-04
  7.3707779e-04   2.9077224e-04
  1.5205874e-03   3.8949991e-04
  2.9507882e-04   8.9467911e-04
  2.7532165e-04   6.4012693e-04
 -1.0820145e-03   1.6597420e-04
 -1.0959300e-03   3.2450559e-04
 -1.4556908e-03   4.2897137e-04
  6.5438968e-01   1.6458378e-04
  6.1072374e-04   5.5614917e-04
 -1.9472506e-03   8.6466130e-04
 -6.8953366e-04   5.7062163e-04
  1.4732814e-04   4.4320646e-04
 -1.9647655e-04   7.1679516e-04
 -1.1785582e-03   1.3821185e-04
  7.0925616e-04   3.8047746e-04
  1.7957692e-03   6.7320443e-04
 -6.8798721e-02   2.5907825e-04
  8.9051336e-01   7.1846778e-05
  7.8876555e-01   1.3624218e-04
  2.6476285e-03   3.2377802e-04
  4.8579499e-01   1.5258296e-04
  1.2222234e+00   1.2702038e-04
  5.4392534e-01   1.5507771e-04
 -2.8852871e-01   1.7354393e-04
  7.0684791e-01   1.5170122e-05
  5.4547789e-05   1.8131090e-04
 -6.9735094e-04   8.2373631e-04
  6.7339599e-04   5.6379364e-04
  6.2978634e-04   4.3185570e-04
  6.1851293e-03   1.5738432e-03
 -6.1724469e-04   1.1132075e-04
 -1.6830253e-04   2.0365376e-04
  7.1952348e-03   7.2061352e-04
  2.7758570e-04   4.1578489e-04
 -5.6880996e-02   6.8495906e-04
  2.6957080e-04   3.3269089e-04
 -6.2487483e-01   1.9505442e-04
 -1.0120637e-04   6.0768676e-04
 -7.4802637e-01   7.4798183e-05
 -1.6185696e-03   1.8609126e-04
  1.4746112e-03   3.7599861e-04
  5.2109784e-01   2.9316056e-04
 -2.7760738e-01   9.9113371e-05
 -3.4898466e-01   1.9330415e-04
 -1.8781522e-02   2.5196830e-04
 -7.9518992e-01   6.1314327e-05
 -1.6585733e-04   6.3249434e-04
 -5.9408606e-03   3.5637576e-04
 -6.0966087e-04   3.0660187e-04
 -2.4972763e-04   3.2331140e-04
 -6.7540882e-03   2.9675910e-04
 -3.8626052e-03   3.8624593e-04
 -9.1417268e-04   5.3094636e-04
 -1.4521950e-03   7.3261076e-04
 -1.7900763e-03   7.5825036e-04
 -1.1242423e-03   6.2157214e-04
  4.3590374e-02   3.5588108e-03
  1.7214888e-03   3.2917960e-04
  1.4869371e-04   7.6763699e-04
  4.4298000e-03   6.4939237e-04
 -7.2949566e-04   3.2023870e-04
  2.9697808e-04   2.5960439e-04
 -7.5480010e-04   4.0839342e-04
 -2.6112673e-04   2.2555447e-04
  2.8029946e-03   7.2201889e-04
  3.1225657e-04   8.3220104e-04
  5.6774233e-04   1.8682797e-04
 -8.5002778e-04   3.5020214e-04
  1.2152554e-03   7.3196809e-04
  7.9225367e-03   5.5462000e-04
 -1.1272164e-03   1.9667188e-04
 -3.1942788e-03   4.6760583e-04
 -1.5560165e-04   3.7719085e-04
 -1.1340658e-03   7.9453556e-04
  1.0953693e-03   4.5947914e-04
  2.6081994e-03   7.5663708e-04
 -1.4026379e-03   6.5077160e-04
  1.5349052e-03   8.7251916e-04
 -1.9990252e-03   8.4057404e-04
 -4.5101973e-04   9.8897668e-04
 -1.7838326e-03   4.4555106e-04
 -4.4236684e-04   2.9059389e-04
  4.2739863e-04   5.7952793e-04
  3.2041348e-03   1.0929451e-03
 -3.5802097e-04   3.4800390e-04
 -3.1845504e-03   4.8614328e-04
  2.5531790e-05   3.7251605e-04
  4.9195800e-04   6.0434919e-04
 -4.9880510e-03   7.0655061e-04
  4.9904012e-04   5.0404767e-04
 -2.8830713e-03   9.8561810e-04
  7.9798402e-04   6.6147465e-04
 -1.8376096e-04   4.9644045e-04
 -9.2075660e-04   5.9233833e-04
 -7.7632075e-04   5.4204388e-04
 -1.8062124e-04   3.9100178e-04
  4.1118730e-04   4.1053328e-04
  1.6046988e-04   6.5874855e-04
 -1.2410027e-01   1.5815889e-04
 -4.1800077e-04   5.2445050e-04
 -6.4037013e-04   5.7211093e-04
 -1.2597813e-03   4.8358596e-04
  3.9158610e-04   4.6103777e-04
  4.3760738e-03   2.4638404e-04
 -4.1732278e-02   7.4010337e-04
 -2.2587911e-03   5.3625740e-04
  1.2125521e-03   2.3582680e-04
  3.8364218e-05   4.0744274e-04
 -2.5551266e-04   3.8805240e-04
  8.7401556e-04   2.9528298e-04
 -8.4111450e-04   2.3344776e-04
 -4.9537223e-02   4.3165308e-04
 -6.6266949e-03   9.6986296e-05
  4.4280302e-04   7.8667968e-04
 -2.8764410e-03   7.5106492e-04
  4.7368088e-04   3.2094301e-04
  9.6480863e-04   3.0987349e-04
 -4.7364468e-03   8.1871526e-04
 -1.7247784e-03   8.0259616e-04
  1.1682205e-04   3.3373572e-04
  1.2304737e-02   9.2287234e-04
 -7.5653203e-05   4.9613527e-04
  1.7538385e-03   5.4946216e-04
  2.7440008e-05   3.9699732e-04
 -7.2733401e-03   5.6100142e-04
 -3.6543733e-04   3.1354080e-04
 -2.9624072e-03   4.5899386e-04
  7.8150118e-04   1.8615385e-04
 -4.0063993e-03   4.9433892e-04
 -1.3611832e-02   1.9532036e-04
  2.8050139e-03   3.3155797e-04
 -8.6605584e-04   4.3272998e-04
 -8.6758542e-04   3.8927392e-04
 -5.1952293e-03   4.1511017e-04
  2.5741060e-03   2.3620792e-04
 -8.9942140e-04   6.8877294e-04
  3.0138536e-04   4.8721873e-04
  8.8531559e-04   3.4739485e-04
 -2.1427786e-03   4.5847779e-04
 -1.8989977e-06   5.6691974e-04
 -9.8144158e-04   3.5213577e-04
  3.1080055e-03   5.1826111e-04
  8.7294611e-04   4.6737964e-04
  4.2604993e-04   5.9399591e-04
  8.4596907e-04   4.3999669e-04
  2.4492663e-04   5.5952638e-04
 -1.1254191e-04   4.8912014e-04
  3.1037792e-04   5.8504171e-04
 -2.1358528e-03   1.2937858e-04
  5.7330857e-05   2.5582107e-04
 -1.8657553e-03   5.7389482e-04
 -1.7636318e-03   3.6615759e-04
 -2.1777106e-02   5.1022117e-04
 -5.3053596e-03   2.3783586e-04
  1.2205041e-01   2.3920787e-04
  3.3279979e-03   4.9838680e-04
 -1.1986509e-03   3.5519179e-04
 -2.5230154e-01   2.6521948e-05
  3.9812946e-03   5.5859424e-04
 -2.5464077e-03   3.2092721e-04
 -9.8476448e-06   5.2363524e-04
 -9.3921798e-04   4.4727058e-04
 -1.1789006e-03   6.5559201e-04
  5.2930560e-04   1.0703936e-03
 -1.4556216e-03   3.3875293e-04
 -1.5515585e-03   6.9410773e-04
  8.4795756e-03   2.0019666e-04
  6.6846638e-04   3.2785209e-04
 -3.2460070e-04   2.0138884e-04
 -8.2228932e-04   1.9685343e-04
  8.8402219e-02   3.4959178e-04
  3.1366115e-03   4.1481049e-05
  1.6633986e-04   3.3635035e-04
  7.9902103e-03   5.8046891e-05
  9.4126444e-04   2.2387110e-04
  4.3141808e-05   4.4248827e-05
 -1.3692123e-04   4.3347510e-04
  1.2015131e-04   5.6123786e-04
 -2.0050386e-04   3.7119066e-04
 -2.0850427e-04   3.0560870e-04
  6.0157699e-04   3.1246632e-04
 -1.9094029e-03   2.9247708e-04
 -1.4249556e-03   4.5123414e-04
  1.4883539e-03   2.4144769e-04
  4.1492260e-03   8.5930742e-04
 -1.4519977e-03   1.0710175e-03
  1.4375858e-03   3.2253092e-04
  4.0349322e-03   8.4492663e-04
  2.1772877e-04   4.8633499e-04
  7.4561714e-04   7.0312619e-04
  1.1300377e-03   9.3282544e-04
 -5.2388909e-04   4.1222584e-04
  1.5056054e-01   1.1879481e-04
  5.4988923e-05   2.5530512e-04
 -2.3242361e-04   2.6092035e-04
 -2.6221716e-01   5.7283457e-04
  3.5371324e-01   1.9602056e-04
  1.5420072e-01   1.2085578e-04
 -2.6866874e-01   4.7716181e-05
 -9.2272852e-03   2.0656893e-04
 -8.3442098e-01   7.8443176e-05
  4.6400959e-03   1.3228570e-04
  4.0300256e-03   4.5426897e-04
  1.3812211e-03   5.1233952e-04
 -1.3698781e-03   3.8969441e-04
  6.2606443e-05   2.2109383e-04
  4.4618384e-04   9.0445281e-04
 -1.2422273e-02   1.2284103e-04
  2.8989252e-04   5.9164222e-04
  7.7641974e-03   1.4549907e-04
  1.2556313e-03   3.6074722e-04
 -1.0290372e-01   1.3613385e-04
 -6.7533222e-03   1.3917894e-04
 -1.7274618e-02   1.7570885e-04
 -2.3128062e-04   2.1974331e-04
 -6.8676495e-04   2.8978955e-04
  3.9257452e-02   2.6242287e-04
  2.4630677e-02   2.6246586e-05
 -6.2839270e-02   2.6629423e-04
 -1.2846014e-01   1.1182004e-04
 -1.1442800e-01   3.3355539e-04
 -7.1087969e-04   2.8397993e-04
 -3.1217358e-05   5.5654993e-04
  6.0854657e-03   8.4462052e-04
 -7.8760512e-02   6.8667845e-04
 -1.0043017e-02   8.1055961e-04
 -1.8697256e-01   7.6752604e-04
 -2.1204296e-03   7.3300890e-04
 -3.5994680e-04   2.8671697e-04
 -1.8462734e-04   4.8689535e-04
 -1.4917665e-03   1.5786631e-04
 -6.0998742e-03   6.9529010e-04
  3.0541748e-03   9.1085378e-05
 -2.3385322e-02   5.1682990e-04
  1.4066057e-03   4.6645175e-04
 -8.7710854e-05   3.1578544e-04
  5.9637665e-03   1.1373025e-04
 -3.2229841e-01   1.3131266e-04
  6.4486876e-02   2.7379702e-04
 -2.1162012e-03   8.3845909e-05
  5.0348651e-02   2.4523155e-04
 -1.0337477e-01   1.5293586e-05
  4.0285435e-02   3.2837776e-05
 -4.1596044e-02   2.4635147e-04
  5.0922316e-02   9.9357101e-05
  8.7083485e-03   2.0054825e-04
  1.8420118e-01   3.3670111e-04
 -8.0574062e-03   4.9625197e-04
 -2.5130528e-01   3.1725338e-04