
***************************************************************
*                 Welcome to use GPUMD                        *
*    (Graphics Processing Units Molecular Dynamics)           *
*                     Version 3.8                             *
*              This is the nep executable                     *
***************************************************************


---------------------------------------------------------------
GPU information:
---------------------------------------------------------------

number of GPUs = 2
Device id:                   0
    Device name:             NVIDIA GeForce RTX 3090
    Compute capability:      8.6
    Amount of global memory: 23.6911 GB
    Number of SMs:           82
Device id:                   1
    Device name:             NVIDIA GeForce RTX 3090
    Compute capability:      8.6
    Amount of global memory: 23.6911 GB
    Number of SMs:           82
GPU-0 cannot access GPU-1.
GPU-1 cannot access GPU-0.

---------------------------------------------------------------
Started running nep.
---------------------------------------------------------------


---------------------------------------------------------------
Started reading nep.in.
---------------------------------------------------------------

Input or default parameters:
    (default) model_type = potential.
    (default) calculation mode = train.
    (input)   use NEP version 4.
    (input)   number of atom types = 2.
        (default) type 0 (Cu with Z = 29) has force weight of 1.
        (default) type 1 (Se with Z = 34) has force weight of 1.
    (default) will not add the ZBL potential.
    (input)   radial cutoff = 7 A.
    (input)   angular cutoff = 5 A.
    (input)   n_max_radial = 8.
    (input)   n_max_angular = 6.
    (input)   basis_size_radial = 12.
    (input)   basis_size_angular = 12.
    (input)   l_max_3body = 4.
    (input)   l_max_4body = 2.
    (input)   l_max_5body = 0.
    (input)   number of neurons = 50.
    (default) lambda_1 = -1.
    (default) lambda_2 = -1.
    (input)   lambda_e = 1.
    (input)   lambda_f = 1.
    (input)   lambda_v = 0.2.
    (default) lambda_shear = 1.
    (default) force_delta = 0.
    (input)   batch size = 1000.
    (input)   population size = 50.
    (input)   maximum number of generations = 100000.
Some calculated parameters:
    number of radial descriptor components = 9.
    number of angular descriptor components = 35.
    total number of descriptor components = 44.
    NN architecture = 44-50-1.
    number of NN parameters to be optimized = 4601.
    number of descriptor parameters to be optimized = 832.
    total number of parameters to be optimized = 5433.

---------------------------------------------------------------
Finished reading nep.in.
---------------------------------------------------------------


---------------------------------------------------------------
Started reading train.xyz.
---------------------------------------------------------------

Number of configurations = 510.
Number of devices = 2
Number of batches = 1
Hello, I changed the batch_size from 1000 to 510.

Batch 0:
Number of configurations = 510.

---------------------------------------------------------------
Constructing train_set in device  0.
Total number of atoms = 187420.
Number of atoms in the largest configuration = 596.
Number of configurations having virial = 510.
Radial descriptor with a cutoff of 7 A:
    Minimum number of neighbors for one atom = 61.
    Maximum number of neighbors for one atom = 100.
Angular descriptor with a cutoff of 5 A:
    Minimum number of neighbors for one atom = 18.
    Maximum number of neighbors for one atom = 44.
---------------------------------------------------------------


---------------------------------------------------------------
Constructing train_set in device  1.
Total number of atoms = 187420.
Number of atoms in the largest configuration = 596.
Number of configurations having virial = 510.
Radial descriptor with a cutoff of 7 A:
    Minimum number of neighbors for one atom = 61.
    Maximum number of neighbors for one atom = 100.
Angular descriptor with a cutoff of 5 A:
    Minimum number of neighbors for one atom = 18.
    Maximum number of neighbors for one atom = 44.
---------------------------------------------------------------


---------------------------------------------------------------
Started reading test.xyz.
---------------------------------------------------------------

Number of configurations = 210.

---------------------------------------------------------------
Constructing test_set in device  0.
Total number of atoms = 73840.
Number of atoms in the largest configuration = 596.
Number of configurations having virial = 210.
Radial descriptor with a cutoff of 7 A:
    Minimum number of neighbors for one atom = 61.
    Maximum number of neighbors for one atom = 95.
Angular descriptor with a cutoff of 5 A:
    Minimum number of neighbors for one atom = 18.
    Maximum number of neighbors for one atom = 40.
---------------------------------------------------------------


---------------------------------------------------------------
Constructing test_set in device  1.
Total number of atoms = 73840.
Number of atoms in the largest configuration = 596.
Number of configurations having virial = 210.
Radial descriptor with a cutoff of 7 A:
    Minimum number of neighbors for one atom = 61.
    Maximum number of neighbors for one atom = 95.
Angular descriptor with a cutoff of 5 A:
    Minimum number of neighbors for one atom = 18.
    Maximum number of neighbors for one atom = 40.
---------------------------------------------------------------


---------------------------------------------------------------
Time used for initialization = 0.558703 s.
---------------------------------------------------------------


---------------------------------------------------------------
Started training.
---------------------------------------------------------------

Step    Total-Loss L1Reg-Loss L2Reg-Loss RMSE-E-Train RMSE-F-Train RMSE-V-Train RMSE-E-Test  RMSE-F-Test  RMSE-V-Test  
100     0.48226    0.08773    0.10651    0.01604      0.24574      0.13118      0.01590      0.22873      0.15091      
200     0.44258    0.08706    0.10759    0.01420      0.21155      0.11095      0.01468      0.20211      0.11654      
300     0.42108    0.08691    0.10846    0.01228      0.19273      0.10351      0.01141      0.18512      0.07263      
400     0.45515    0.09828    0.12286    0.00891      0.20065      0.12226      0.01132      0.19306      0.12306      
500     0.44517    0.09982    0.12527    0.00954      0.19057      0.09988      0.00872      0.17426      0.05667      
600     0.43401    0.10007    0.12584    0.01184      0.18131      0.07475      0.01364      0.17167      0.08839      
700     0.45470    0.10777    0.13578    0.01087      0.17938      0.10447      0.00918      0.17397      0.08123      
800     0.45253    0.10973    0.13808    0.01640      0.17079      0.08759      0.01482      0.15823      0.04726      
900     0.44874    0.11145    0.14056    0.00782      0.17689      0.06018      0.00807      0.17387      0.04195      
1000    0.46238    0.11663    0.14740    0.00841      0.17509      0.07418      0.00991      0.17105      0.09548      
1100    0.50965    0.13052    0.16489    0.01141      0.18660      0.08115      0.01073      0.18158      0.05876      
1200    0.50184    0.13026    0.16516    0.01064      0.17607      0.09852      0.01241      0.16419      0.05888      
1300    0.47367    0.12502    0.15825    0.00609      0.16794      0.08185      0.00713      0.17039      0.06684      
1400    0.48597    0.12957    0.16435    0.00981      0.16515      0.08538      0.00910      0.16239      0.05080      
1500    0.47378    0.12833    0.16198    0.01445      0.15705      0.05985      0.01309      0.15682      0.07301      
1600    0.46700    0.12774    0.16128    0.00688      0.15796      0.06568      0.00672      0.15384      0.08668      
1700    0.47112    0.13015    0.16427    0.00912      0.15695      0.05310      0.00973      0.16280      0.06325      
1800    0.45742    0.12739    0.16070    0.00763      0.15169      0.05007      0.00919      0.14560      0.03938      
1900    0.47416    0.13289    0.16817    0.00695      0.15043      0.07859      0.00720      0.14494      0.08660      
2000    0.48623    0.13734    0.17356    0.00922      0.15520      0.05458      0.00788      0.15536      0.03141      
2100    0.46603    0.13236    0.16783    0.00678      0.15093      0.04064      0.00696      0.15012      0.04501      
2200    0.47579    0.13584    0.17225    0.00854      0.14961      0.04778      0.01079      0.14671      0.03596      
2300    0.46041    0.13207    0.16830    0.00717      0.14452      0.04176      0.00618      0.14100      0.04567      
2400    0.47039    0.13526    0.17299    0.00935      0.14369      0.04548      0.01130      0.13393      0.03409      
2500    0.47318    0.13720    0.17446    0.00587      0.14889      0.03380      0.00702      0.14610      0.02743      
2600    0.45359    0.13223    0.16856    0.00815      0.13688      0.03885      0.00816      0.13122      0.03857      
2700    0.47715    0.13965    0.17806    0.01186      0.13902      0.04277      0.01069      0.13509      0.03699      
2800    0.45328    0.13331    0.17024    0.00539      0.13598      0.04181      0.00612      0.12790      0.05028      
2900    0.46001    0.13569    0.17353    0.00655      0.13770      0.03270      0.00764      0.13161      0.03117      
3000    0.45462    0.13455    0.17255    0.00681      0.13229      0.04208      0.00868      0.13164      0.04446      
3100    0.45510    0.13540    0.17344    0.00672      0.13129      0.04125      0.00750      0.12911      0.02720      
3200    0.45760    0.13669    0.17523    0.00858      0.12593      0.05591      0.00541      0.12549      0.05046      
3300    0.43592    0.13050    0.16759    0.00641      0.12305      0.04182      0.00583      0.12169      0.04183      
3400    0.44539    0.13371    0.17166    0.00826      0.12583      0.02967      0.00882      0.11828      0.02676      
3500    0.41596    0.12518    0.16107    0.00384      0.12003      0.02916      0.00405      0.11655      0.02837      
3600    0.43277    0.13053    0.16800    0.00574      0.12017      0.04164      0.00799      0.11761      0.04280      
3700    0.43740    0.13262    0.17057    0.00659      0.12141      0.03113      0.00860      0.11369      0.02928      
3800    0.43441    0.13189    0.16989    0.00503      0.12132      0.03141      0.00611      0.11997      0.02415      
3900    0.42147    0.12824    0.16523    0.00338      0.11942      0.02597      0.00379      0.11532      0.02377      
4000    0.44141    0.13497    0.17313    0.00506      0.12256      0.02841      0.00598      0.11777      0.02985      
4100    0.44427    0.13556    0.17506    0.00745      0.11445      0.05879      0.00838      0.11184      0.05952      
4200    0.45173    0.13858    0.17861    0.00872      0.12023      0.02792      0.00714      0.11656      0.03187      
4300    0.43170    0.13312    0.17107    0.00407      0.11822      0.02613      0.00466      0.11318      0.02362      
4400    0.43357    0.13411    0.17200    0.00503      0.11249      0.04967      0.00645      0.10826      0.04486      
4500    0.43409    0.13469    0.17254    0.00532      0.11686      0.02338      0.00643      0.11420      0.02793      
4600    0.43845    0.13628    0.17497    0.00638      0.11518      0.02814      0.00616      0.10958      0.02610      
4700    0.44850    0.13937    0.17942    0.00765      0.11631      0.02879      0.00600      0.11436      0.03275      
4800    0.43610    0.13578    0.17472    0.00509      0.11454      0.02982      0.00500      0.11043      0.03124      
4900    0.44899    0.14035    0.18046    0.00497      0.11719      0.03006      0.00645      0.11366      0.04070      
5000    0.43931    0.13760    0.17725    0.00499      0.11181      0.03831      0.00610      0.10843      0.03944      
5100    0.44012    0.13837    0.17817    0.00704      0.11121      0.02671      0.00775      0.10913      0.02708      
5200    0.44376    0.13973    0.18029    0.00566      0.11295      0.02564      0.00742      0.10889      0.02236      
5300    0.45340    0.14316    0.18455    0.00487      0.11599      0.02421      0.00497      0.11375      0.02336      
5400    0.44193    0.14010    0.17995    0.00506      0.11036      0.03228      0.00455      0.10852      0.03077      
5500    0.43468    0.13797    0.17720    0.00382      0.11012      0.02784      0.00503      0.10423      0.02535      
5600    0.43455    0.13808    0.17786    0.00318      0.11076      0.02331      0.00308      0.10862      0.02470      
5700    0.44449    0.14146    0.18218    0.00531      0.11003      0.02755      0.00673      0.10459      0.03413      
5800    0.43382    0.13847    0.17795    0.00419      0.10934      0.01939      0.00508      0.10493      0.01887      
5900    0.43737    0.13964    0.17982    0.00492      0.10767      0.02657      0.00524      0.10485      0.01731      
6000    0.43590    0.13972    0.17912    0.00508      0.10718      0.02400      0.00399      0.10538      0.01805      
6100    0.42213    0.13503    0.17389    0.00451      0.10413      0.02280      0.00470      0.09985      0.02069      
6200    0.42985    0.13745    0.17720    0.00445      0.10690      0.01921      0.00547      0.10412      0.01865      
6300    0.42803    0.13724    0.17692    0.00547      0.10280      0.02794      0.00593      0.09965      0.02949      
6400    0.43157    0.13842    0.17865    0.00486      0.10547      0.02087      0.00444      0.10119      0.02121      
6500    0.42071    0.13519    0.17432    0.00593      0.10066      0.02301      0.00578      0.09690      0.02181      
6600    0.41353    0.13304    0.17142    0.00442      0.10027      0.02189      0.00531      0.09654      0.02069      
6700    0.41100    0.13210    0.17057    0.00345      0.10079      0.02041      0.00343      0.09859      0.02038      
6800    0.41746    0.13441    0.17374    0.00362      0.10058      0.02555      0.00400      0.09855      0.02825      
6900    0.43320    0.13979    0.18056    0.00613      0.10173      0.02494      0.00447      0.09891      0.02491      
7000    0.41161    0.13289    0.17169    0.00539      0.09721      0.02218      0.00517      0.09600      0.02112      
7100    0.41720    0.13485    0.17417    0.00550      0.09770      0.02493      0.00574      0.09533      0.02316      
7200    0.41960    0.13539    0.17577    0.00584      0.09802      0.02286      0.00521      0.09404      0.02296      
7300    0.41801    0.13493    0.17541    0.00518      0.09681      0.02841      0.00558      0.09438      0.02599      
7400    0.43103    0.13943    0.18115    0.00554      0.10051      0.02207      0.00657      0.09820      0.02588      
7500    0.42073    0.13629    0.17669    0.00430      0.09862      0.02420      0.00577      0.09827      0.02260      
7600    0.41461    0.13429    0.17450    0.00570      0.09532      0.02397      0.00641      0.09331      0.02385      
7700    0.43461    0.14094    0.18296    0.00571      0.09868      0.03162      0.00615      0.09622      0.02736      
7800    0.42244    0.13732    0.17809    0.00547      0.09544      0.03063      0.00516      0.09237      0.03115      
7900    0.41443    0.13521    0.17495    0.00337      0.09532      0.02790      0.00325      0.09254      0.02148      
8000    0.42054    0.13739    0.17753    0.00432      0.09665      0.02330      0.00403      0.09371      0.02614      
8100    0.41424    0.13513    0.17509    0.00485      0.09447      0.02354      0.00470      0.09225      0.02124      
8200    0.41531    0.13553    0.17545    0.00466      0.09429      0.02686      0.00564      0.09329      0.03153      
8300    0.41367    0.13503    0.17465    0.00466      0.09502      0.02155      0.00586      0.09470      0.02217      
8400    0.40803    0.13305    0.17259    0.00362      0.09445      0.02159      0.00433      0.09341      0.02071      
8500    0.40491    0.13242    0.17126    0.00392      0.09289      0.02214      0.00417      0.09130      0.02519      
8600    0.41173    0.13451    0.17426    0.00399      0.09320      0.02886      0.00448      0.09245      0.02748      
8700    0.40417    0.13199    0.17114    0.00388      0.09070      0.03227      0.00444      0.09031      0.03648      
8800    0.40702    0.13309    0.17246    0.00340      0.09352      0.02274      0.00353      0.09146      0.02628      
8900    0.40096    0.13103    0.17017    0.00547      0.09055      0.01867      0.00550      0.08811      0.02084      
9000    0.41327    0.13507    0.17566    0.00457      0.09233      0.02818      0.00525      0.09078      0.02638      
9100    0.40838    0.13337    0.17376    0.00270      0.09408      0.02236      0.00341      0.09360      0.02783      
9200    0.40173    0.13141    0.17112    0.00323      0.09144      0.02265      0.00371      0.09032      0.02152      
9300    0.39856    0.13024    0.16983    0.00324      0.09150      0.01867      0.00382      0.08903      0.01713      
9400    0.39495    0.12904    0.16831    0.00485      0.08909      0.01832      0.00518      0.08722      0.01921      
9500    0.39620    0.12957    0.16863    0.00308      0.09112      0.01898      0.00345      0.08975      0.01556      
9600    0.40060    0.13095    0.17073    0.00358      0.09134      0.01999      0.00457      0.09011      0.01897      
9700    0.41797    0.13678    0.17814    0.00396      0.09329      0.02899      0.00478      0.09126      0.03012      
9800    0.41631    0.13601    0.17762    0.00589      0.09265      0.02072      0.00511      0.08981      0.01936      
9900    0.41342    0.13531    0.17632    0.00472      0.09093      0.03068      0.00371      0.08991      0.03370      
10000   0.40640    0.13318    0.17339    0.00378      0.09237      0.01839      0.00385      0.09099      0.01934      
10100   0.40015    0.13142    0.17094    0.00427      0.08970      0.01916      0.00450      0.08785      0.01912      
10200   0.40726    0.13368    0.17395    0.00337      0.09288      0.01692      0.00299      0.09168      0.01893      
10300   0.40958    0.13460    0.17490    0.00398      0.09181      0.02149      0.00468      0.09064      0.02441      
10400   0.39628    0.13036    0.16927    0.00284      0.08988      0.01960      0.00336      0.08790      0.01836      
10500   0.39969    0.13129    0.17105    0.00265      0.09052      0.02098      0.00336      0.08832      0.02225      
10600   0.39632    0.13036    0.16950    0.00340      0.08949      0.01785      0.00472      0.08688      0.02045      
10700   0.39984    0.13100    0.17097    0.00319      0.09037      0.02157      0.00361      0.08777      0.01975      
10800   0.39720    0.13065    0.16974    0.00389      0.08886      0.02030      0.00321      0.08750      0.02194      
10900   0.39044    0.12811    0.16711    0.00315      0.08840      0.01840      0.00352      0.08684      0.02110      
11000   0.39703    0.13028    0.17012    0.00327      0.08838      0.02488      0.00339      0.08601      0.01987      
11100   0.38872    0.12745    0.16662    0.00264      0.08808      0.01965      0.00315      0.08705      0.02319      
11200   0.39294    0.12934    0.16827    0.00285      0.08932      0.01580      0.00307      0.08759      0.01648      
11300   0.40138    0.13188    0.17213    0.00407      0.09004      0.01630      0.00499      0.08770      0.01758      
11400   0.40303    0.13247    0.17296    0.00466      0.08944      0.01751      0.00396      0.08720      0.01995      
11500   0.39454    0.12996    0.16951    0.00344      0.08685      0.02398      0.00419      0.08621      0.02148      
11600   0.38760    0.12771    0.16660    0.00251      0.08600      0.02393      0.00269      0.08378      0.02149      
11700   0.39625    0.13038    0.17019    0.00471      0.08745      0.01758      0.00561      0.08551      0.01858      
11800   0.38987    0.12822    0.16749    0.00354      0.08684      0.01888      0.00357      0.08588      0.02095      
11900   0.39340    0.12924    0.16845    0.00489      0.08684      0.01989      0.00425      0.08523      0.02173      
12000   0.38594    0.12697    0.16538    0.00333      0.08629      0.01985      0.00435      0.08457      0.01973      
12100   0.38832    0.12777    0.16627    0.00348      0.08690      0.01947      0.00376      0.08583      0.02000      
12200   0.38647    0.12702    0.16559    0.00370      0.08706      0.01553      0.00356      0.08483      0.01840      
12300   0.38462    0.12623    0.16517    0.00374      0.08621      0.01635      0.00394      0.08474      0.01755      
12400   0.39142    0.12853    0.16785    0.00328      0.08743      0.02167      0.00310      0.08636      0.02626      
12500   0.37802    0.12407    0.16207    0.00374      0.08499      0.01571      0.00433      0.08344      0.01715      
12600   0.38386    0.12583    0.16461    0.00300      0.08678      0.01815      0.00381      0.08559      0.01831      
12700   0.38153    0.12524    0.16356    0.00322      0.08623      0.01642      0.00306      0.08496      0.01880      
12800   0.38435    0.12607    0.16483    0.00375      0.08645      0.01632      0.00484      0.08373      0.01767      
12900   0.37999    0.12460    0.16277    0.00326      0.08544      0.01962      0.00324      0.08422      0.01777      
13000   0.38635    0.12680    0.16508    0.00300      0.08850      0.01484      0.00284      0.08762      0.01562      
13100   0.37695    0.12385    0.16143    0.00261      0.08560      0.01726      0.00274      0.08359      0.01897      
13200   0.38320    0.12570    0.16396    0.00381      0.08643      0.01650      0.00393      0.08564      0.01805      
13300   0.38068    0.12481    0.16299    0.00429      0.08536      0.01620      0.00307      0.08418      0.01676      
13400   0.37696    0.12382    0.16122    0.00234      0.08526      0.02157      0.00251      0.08373      0.02108      
13500   0.37510    0.12314    0.16058    0.00361      0.08444      0.01666      0.00407      0.08253      0.01607      
13600   0.37580    0.12345    0.16070    0.00326      0.08495      0.01720      0.00425      0.08302      0.01429      
13700   0.37809    0.12436    0.16168    0.00407      0.08517      0.01404      0.00388      0.08285      0.01504      
13800   0.37430    0.12296    0.16002    0.00254      0.08576      0.01512      0.00296      0.08394      0.01528      
13900   0.37160    0.12214    0.15866    0.00288      0.08484      0.01543      0.00390      0.08417      0.01569      
14000   0.36799    0.12066    0.15742    0.00338      0.08358      0.01475      0.00407      0.08193      0.01607      
14100   0.36939    0.12112    0.15800    0.00287      0.08332      0.02038      0.00303      0.08113      0.02290      
14200   0.37542    0.12308    0.16060    0.00355      0.08493      0.01638      0.00456      0.08328      0.01615      
14300   0.37334    0.12246    0.15969    0.00255      0.08491      0.01869      0.00310      0.08280      0.01667      
14400   0.37440    0.12251    0.16033    0.00327      0.08506      0.01614      0.00354      0.08282      0.01797      
14500   0.37255    0.12212    0.15942    0.00321      0.08505      0.01377      0.00443      0.08340      0.01495      
14600   0.37124    0.12152    0.15898    0.00326      0.08414      0.01662      0.00382      0.08171      0.01646      
14700   0.37496    0.12277    0.16034    0.00298      0.08592      0.01477      0.00350      0.08407      0.01569      
14800   0.37077    0.12146    0.15821    0.00258      0.08567      0.01425      0.00320      0.08305      0.01449      
14900   0.37230    0.12169    0.15856    0.00355      0.08361      0.02442      0.00362      0.08119      0.02557      
15000   0.36137    0.11833    0.15399    0.00259      0.08296      0.01752      0.00290      0.08005      0.01722      
15100   0.36762    0.12062    0.15647    0.00356      0.08304      0.01959      0.00370      0.08089      0.01477      
15200   0.36490    0.11962    0.15529    0.00285      0.08363      0.01757      0.00321      0.08161      0.01761      
15300   0.36621    0.11986    0.15591    0.00343      0.08297      0.02017      0.00445      0.08096      0.02257      
15400   0.36493    0.11930    0.15531    0.00375      0.08360      0.01484      0.00400      0.08139      0.01599      
15500   0.36085    0.11820    0.15373    0.00304      0.08242      0.01737      0.00337      0.08012      0.01782      
15600   0.36042    0.11767    0.15335    0.00324      0.08319      0.01486      0.00359      0.08038      0.01721      
15700   0.36664    0.11994    0.15604    0.00253      0.08463      0.01751      0.00282      0.08261      0.01819      
15800   0.36088    0.11783    0.15375    0.00305      0.08319      0.01535      0.00372      0.08133      0.01615      
15900   0.35927    0.11722    0.15296    0.00313      0.08276      0.01594      0.00398      0.08079      0.01770      
16000   0.36014    0.11788    0.15323    0.00282      0.08234      0.01936      0.00340      0.08067      0.02005      
16100   0.35585    0.11646    0.15114    0.00340      0.08176      0.01541      0.00320      0.07943      0.01576      
16200   0.35900    0.11749    0.15242    0.00298      0.08246      0.01824      0.00386      0.08105      0.01756      
16300   0.35780    0.11725    0.15171    0.00333      0.08252      0.01498      0.00409      0.07989      0.01486      
16400   0.35438    0.11559    0.15025    0.00301      0.08231      0.01608      0.00351      0.08067      0.01417      
16500   0.35118    0.11414    0.14862    0.00302      0.08263      0.01384      0.00365      0.08108      0.01437      
16600   0.35403    0.11532    0.14983    0.00303      0.08272      0.01569      0.00377      0.08071      0.01806      
16700   0.35319    0.11485    0.14951    0.00300      0.08316      0.01330      0.00408      0.08109      0.01384      
16800   0.34777    0.11329    0.14717    0.00289      0.08118      0.01622      0.00365      0.07968      0.01641      
16900   0.35168    0.11450    0.14858    0.00322      0.08252      0.01433      0.00432      0.08111      0.01478      
17000   0.35008    0.11398    0.14818    0.00320      0.08189      0.01415      0.00427      0.07974      0.01627      
17100   0.35083    0.11401    0.14853    0.00306      0.08198      0.01626      0.00405      0.07927      0.01674      
17200   0.35068    0.11367    0.14858    0.00324      0.08211      0.01543      0.00459      0.08013      0.01586      
17300   0.34357    0.11155    0.14517    0.00272      0.08130      0.01415      0.00310      0.07928      0.01559      
17400   0.34217    0.11110    0.14447    0.00267      0.08074      0.01598      0.00347      0.07934      0.01671      
17500   0.34224    0.11095    0.14445    0.00245      0.08164      0.01376      0.00287      0.07945      0.01465      
17600   0.34237    0.11113    0.14437    0.00259      0.08036      0.01965      0.00305      0.07879      0.02030      
17700   0.34055    0.11025    0.14347    0.00274      0.08109      0.01495      0.00297      0.07900      0.01731      
17800   0.34265    0.11109    0.14449    0.00244      0.08136      0.01636      0.00316      0.07976      0.01557      
17900   0.33609    0.10896    0.14184    0.00236      0.08014      0.01394      0.00282      0.07855      0.01286      
18000   0.33954    0.10997    0.14291    0.00364      0.08031      0.01354      0.00415      0.07868      0.01352      
18100   0.33472    0.10831    0.14092    0.00258      0.07979      0.01561      0.00330      0.07769      0.01704      
18200   0.33325    0.10770    0.14022    0.00245      0.07993      0.01475      0.00285      0.07890      0.01537      
18300   0.33294    0.10759    0.13991    0.00262      0.07986      0.01480      0.00330      0.07821      0.01605      
18400   0.33658    0.10857    0.14118    0.00330      0.07923      0.02154      0.00363      0.07710      0.01966      
18500   0.33399    0.10764    0.13997    0.00340      0.08026      0.01362      0.00308      0.07779      0.01424      
18600   0.32868    0.10617    0.13767    0.00284      0.07927      0.01368      0.00352      0.07712      0.01379      
18700   0.32656    0.10529    0.13651    0.00282      0.07917      0.01379      0.00335      0.07809      0.01414      
18800   0.32923    0.10584    0.13770    0.00268      0.07990      0.01555      0.00266      0.07817      0.01672      
18900   0.32367    0.10389    0.13505    0.00257      0.07959      0.01281      0.00347      0.07842      0.01360      
19000   0.32750    0.10508    0.13664    0.00231      0.08010      0.01682      0.00289      0.07899      0.01386      
19100   0.32376    0.10364    0.13514    0.00272      0.07951      0.01375      0.00318      0.07773      0.01337      
19200   0.32513    0.10423    0.13563    0.00258      0.07975      0.01467      0.00295      0.07832      0.01379      
19300   0.32243    0.10332    0.13419    0.00232      0.07961      0.01498      0.00288      0.07830      0.01621      
19400   0.32504    0.10407    0.13535    0.00296      0.07994      0.01360      0.00342      0.07830      0.01455      
19500   0.31751    0.10172    0.13192    0.00312      0.07817      0.01291      0.00294      0.07659      0.01303      
19600   0.32219    0.10285    0.13357    0.00279      0.07973      0.01632      0.00339      0.07846      0.01702      
19700   0.32069    0.10239    0.13310    0.00278      0.07955      0.01437      0.00362      0.07856      0.01528      
19800   0.31799    0.10127    0.13181    0.00291      0.07895      0.01525      0.00325      0.07726      0.01292      
19900   0.31546    0.09996    0.13054    0.00308      0.07849      0.01691      0.00362      0.07731      0.01605      
20000   0.31572    0.10004    0.13064    0.00281      0.07907      0.01577      0.00349      0.07770      0.01587      
20100   0.31396    0.09927    0.12973    0.00263      0.07940      0.01463      0.00289      0.07765      0.01540      
20200   0.31639    0.09993    0.13060    0.00256      0.08058      0.01364      0.00316      0.07977      0.01483      
20300   0.31126    0.09860    0.12841    0.00314      0.07847      0.01321      0.00436      0.07672      0.01315      
20400   0.31439    0.09949    0.12978    0.00208      0.07946      0.01787      0.00257      0.07753      0.01900      
20500   0.31308    0.09911    0.12895    0.00302      0.07884      0.01576      0.00379      0.07761      0.01477      
20600   0.31182    0.09875    0.12846    0.00276      0.07877      0.01535      0.00366      0.07719      0.01759      
20700   0.31222    0.09875    0.12845    0.00201      0.07972      0.01646      0.00229      0.07774      0.01782      
20800   0.31339    0.09898    0.12908    0.00285      0.07956      0.01459      0.00330      0.07899      0.01559      
20900   0.31068    0.09783    0.12790    0.00265      0.07950      0.01399      0.00343      0.07793      0.01370      
21000   0.30600    0.09635    0.12572    0.00266      0.07842      0.01427      0.00304      0.07659      0.01397      
21100   0.30282    0.09508    0.12438    0.00246      0.07817      0.01370      0.00277      0.07679      0.01429      
21200   0.30340    0.09492    0.12427    0.00272      0.07888      0.01305      0.00291      0.07726      0.01389      
21300   0.30174    0.09440    0.12371    0.00280      0.07781      0.01512      0.00369      0.07573      0.01663      
21400   0.29963    0.09313    0.12259    0.00261      0.07840      0.01445      0.00340      0.07665      0.01604      
21500   0.29910    0.09336    0.12245    0.00211      0.07870      0.01240      0.00246      0.07692      0.01345      
21600   0.29579    0.09233    0.12084    0.00227      0.07761      0.01369      0.00251      0.07628      0.01518      
21700   0.29647    0.09247    0.12101    0.00227      0.07782      0.01450      0.00270      0.07625      0.01496      
21800   0.29756    0.09300    0.12166    0.00256      0.07770      0.01321      0.00292      0.07636      0.01484      
21900   0.29574    0.09215    0.12097    0.00236      0.07706      0.01600      0.00292      0.07548      0.01716      
22000   0.29433    0.09145    0.12025    0.00229      0.07771      0.01316      0.00295      0.07668      0.01339      
22100   0.29302    0.09085    0.11958    0.00261      0.07749      0.01247      0.00316      0.07586      0.01320      
22200   0.29397    0.09127    0.12010    0.00246      0.07753      0.01303      0.00312      0.07601      0.01463      
22300   0.29389    0.09132    0.11990    0.00244      0.07724      0.01497      0.00283      0.07582      0.01401      
22400   0.29509    0.09174    0.12026    0.00257      0.07780      0.01360      0.00323      0.07634      0.01299      
22500   0.29288    0.09095    0.11942    0.00230      0.07756      0.01318      0.00267      0.07563      0.01499      
22600   0.29275    0.09061    0.11913    0.00252      0.07781      0.01342      0.00305      0.07639      0.01476      
22700   0.29144    0.08997    0.11858    0.00242      0.07784      0.01312      0.00261      0.07628      0.01486      
22800   0.28974    0.08926    0.11777    0.00244      0.07739      0.01442      0.00296      0.07582      0.01565      
22900   0.28813    0.08864    0.11724    0.00238      0.07732      0.01273      0.00273      0.07613      0.01308      
23000   0.28817    0.08877    0.11699    0.00213      0.07776      0.01261      0.00253      0.07653      0.01292      
23100   0.28901    0.08908    0.11725    0.00233      0.07780      0.01274      0.00305      0.07635      0.01267      
23200   0.28885    0.08897    0.11716    0.00285      0.07741      0.01233      0.00335      0.07570      0.01276      
23300   0.28715    0.08827    0.11629    0.00241      0.07774      0.01222      0.00283      0.07574      0.01272      
23400   0.28475    0.08745    0.11544    0.00269      0.07669      0.01239      0.00318      0.07506      0.01338      
23500   0.28392    0.08706    0.11506    0.00248      0.07663      0.01342      0.00300      0.07500      0.01309      
23600   0.28185    0.08635    0.11400    0.00257      0.07646      0.01238      0.00304      0.07505      0.01375      
23700   0.27990    0.08551    0.11303    0.00213      0.07673      0.01252      0.00278      0.07507      0.01289      
23800   0.27950    0.08536    0.11294    0.00245      0.07618      0.01282      0.00258      0.07419      0.01336      
23900   0.28108    0.08570    0.11340    0.00235      0.07692      0.01356      0.00276      0.07530      0.01367      
24000   0.28044    0.08559    0.11303    0.00250      0.07669      0.01316      0.00333      0.07495      0.01430      
24100   0.27912    0.08504    0.11259    0.00244      0.07606      0.01498      0.00305      0.07449      0.01395      
24200   0.27956    0.08514    0.11275    0.00269      0.07581      0.01583      0.00312      0.07447      0.01682      
24300   0.27442    0.08333    0.11051    0.00306      0.07499      0.01264      0.00304      0.07352      0.01358      
24400   0.27765    0.08411    0.11171    0.00249      0.07597      0.01688      0.00272      0.07431      0.01857      
24500   0.27743    0.08433    0.11143    0.00279      0.07638      0.01250      0.00309      0.07441      0.01371      
24600   0.27491    0.08345    0.11040    0.00223      0.07597      0.01431      0.00297      0.07498      0.01684      
24700   0.27315    0.08273    0.10968    0.00205      0.07600      0.01346      0.00230      0.07417      0.01469      
24800   0.27254    0.08240    0.10930    0.00258      0.07560      0.01332      0.00316      0.07393      0.01407      
24900   0.27190    0.08216    0.10892    0.00219      0.07593      0.01354      0.00239      0.07410      0.01582      
25000   0.27191    0.08218    0.10882    0.00222      0.07603      0.01332      0.00263      0.07494      0.01490      
25100   0.26971    0.08133    0.10771    0.00236      0.07581      0.01249      0.00285      0.07466      0.01378      
25200   0.26931    0.08109    0.10764    0.00228      0.07548      0.01413      0.00274      0.07382      0.01598      
25300   0.26978    0.08089    0.10776    0.00219      0.07627      0.01335      0.00265      0.07535      0.01427      
25400   0.26732    0.08010    0.10678    0.00218      0.07554      0.01359      0.00237      0.07405      0.01499      
25500   0.26689    0.07997    0.10643    0.00216      0.07580      0.01265      0.00248      0.07391      0.01387      
25600   0.26627    0.07932    0.10572    0.00238      0.07612      0.01367      0.00308      0.07426      0.01469      
25700   0.26641    0.07945    0.10593    0.00226      0.07601      0.01384      0.00267      0.07444      0.01470      
25800   0.26235    0.07825    0.10413    0.00240      0.07530      0.01138      0.00305      0.07346      0.01199      
25900   0.26257    0.07819    0.10380    0.00228      0.07530      0.01500      0.00271      0.07370      0.01717      
26000   0.26380    0.07857    0.10436    0.00216      0.07589      0.01415      0.00279      0.07421      0.01693      
26100   0.26121    0.07754    0.10326    0.00220      0.07565      0.01277      0.00282      0.07353      0.01415      
26200   0.26115    0.07775    0.10315    0.00212      0.07546      0.01338      0.00265      0.07431      0.01438      
26300   0.25928    0.07697    0.10234    0.00229      0.07518      0.01251      0.00265      0.07395      0.01373      
26400   0.25877    0.07666    0.10213    0.00200      0.07525      0.01365      0.00246      0.07392      0.01572      
26500   0.25850    0.07664    0.10185    0.00237      0.07502      0.01309      0.00304      0.07360      0.01506      
26600   0.25909    0.07686    0.10191    0.00297      0.07456      0.01389      0.00389      0.07316      0.01564      
26700   0.25746    0.07634    0.10135    0.00244      0.07478      0.01273      0.00315      0.07308      0.01392      
26800   0.25632    0.07586    0.10074    0.00212      0.07463      0.01482      0.00263      0.07250      0.01347      
26900   0.25650    0.07591    0.10070    0.00277      0.07461      0.01252      0.00350      0.07306      0.01382      
27000   0.25369    0.07490    0.09952    0.00220      0.07465      0.01214      0.00276      0.07350      0.01353      
27100   0.25276    0.07428    0.09907    0.00218      0.07471      0.01258      0.00288      0.07324      0.01380      
27200   0.25469    0.07475    0.09979    0.00278      0.07474      0.01318      0.00273      0.07324      0.01397      
27300   0.25147    0.07353    0.09850    0.00230      0.07453      0.01307      0.00269      0.07307      0.01301      
27400   0.25103    0.07373    0.09827    0.00244      0.07408      0.01251      0.00275      0.07274      0.01365      
27500   0.25176    0.07400    0.09832    0.00246      0.07430      0.01338      0.00321      0.07305      0.01559      
27600   0.25174    0.07391    0.09833    0.00252      0.07423      0.01373      0.00271      0.07312      0.01548      
27700   0.25181    0.07399    0.09823    0.00241      0.07458      0.01294      0.00332      0.07313      0.01373      
27800   0.25012    0.07335    0.09760    0.00245      0.07435      0.01180      0.00290      0.07302      0.01271      
27900   0.24896    0.07297    0.09686    0.00227      0.07437      0.01244      0.00295      0.07309      0.01317      
28000   0.24832    0.07262    0.09657    0.00240      0.07416      0.01287      0.00317      0.07272      0.01457      
28100   0.24786    0.07228    0.09623    0.00256      0.07447      0.01162      0.00316      0.07336      0.01264      
28200   0.24832    0.07241    0.09628    0.00239      0.07478      0.01229      0.00283      0.07351      0.01340      
28300   0.24619    0.07171    0.09528    0.00222      0.07414      0.01421      0.00273      0.07243      0.01647      
28400   0.24630    0.07162    0.09540    0.00241      0.07449      0.01192      0.00322      0.07349      0.01249      
28500   0.24752    0.07169    0.09553    0.00273      0.07514      0.01219      0.00284      0.07392      0.01377      
28600   0.24378    0.07076    0.09427    0.00238      0.07398      0.01189      0.00282      0.07276      0.01323      
28700   0.24374    0.07057    0.09408    0.00197      0.07445      0.01338      0.00231      0.07350      0.01524      
28800   0.24168    0.06981    0.09312    0.00207      0.07421      0.01239      0.00263      0.07290      0.01403      
28900   0.24019    0.06924    0.09250    0.00203      0.07402      0.01202      0.00246      0.07268      0.01368      
29000   0.23950    0.06905    0.09225    0.00228      0.07350      0.01208      0.00298      0.07199      0.01348      
29100   0.24084    0.06929    0.09250    0.00199      0.07411      0.01472      0.00240      0.07272      0.01807      
29200   0.24036    0.06902    0.09240    0.00191      0.07405      0.01494      0.00241      0.07274      0.01674      
29300   0.23898    0.06875    0.09183    0.00236      0.07354      0.01251      0.00313      0.07216      0.01444      
29400   0.23704    0.06816    0.09098    0.00222      0.07318      0.01245      0.00300      0.07197      0.01360      
29500   0.23675    0.06796    0.09090    0.00225      0.07320      0.01224      0.00264      0.07188      0.01366      
29600   0.23791    0.06846    0.09110    0.00185      0.07392      0.01289      0.00232      0.07296      0.01425      
29700   0.23687    0.06810    0.09075    0.00230      0.07329      0.01213      0.00298      0.07229      0.01306      
29800   0.23707    0.06813    0.09075    0.00207      0.07357      0.01273      0.00241      0.07194      0.01458      
29900   0.23786    0.06836    0.09118    0.00224      0.07351      0.01280      0.00281      0.07274      0.01340      
30000   0.23698    0.06795    0.09079    0.00216      0.07362      0.01232      0.00268      0.07251      0.01377      
30100   0.23649    0.06790    0.09062    0.00197      0.07340      0.01303      0.00266      0.07257      0.01349      
30200   0.23678    0.06762    0.09060    0.00207      0.07396      0.01266      0.00235      0.07240      0.01379      
30300   0.23746    0.06813    0.09075    0.00230      0.07363      0.01333      0.00310      0.07211      0.01525      
30400   0.23562    0.06739    0.09015    0.00247      0.07304      0.01286      0.00333      0.07189      0.01482      
30500   0.23512    0.06713    0.08983    0.00259      0.07254      0.01518      0.00291      0.07109      0.01780      
30600   0.23487    0.06713    0.08976    0.00213      0.07316      0.01342      0.00265      0.07193      0.01464      
30700   0.23484    0.06713    0.08982    0.00208      0.07332      0.01246      0.00237      0.07216      0.01256      
30800   0.23342    0.06681    0.08921    0.00198      0.07302      0.01196      0.00245      0.07150      0.01286      
30900   0.23407    0.06700    0.08939    0.00217      0.07267      0.01423      0.00255      0.07182      0.01430      
31000   0.23393    0.06694    0.08921    0.00233      0.07277      0.01341      0.00280      0.07114      0.01449      
31100   0.23257    0.06637    0.08852    0.00230      0.07280      0.01287      0.00302      0.07125      0.01459      
31200   0.23208    0.06620    0.08833    0.00230      0.07273      0.01265      0.00281      0.07146      0.01383      
31300   0.23220    0.06589    0.08834    0.00235      0.07315      0.01235      0.00287      0.07169      0.01334      
31400   0.23006    0.06552    0.08743    0.00225      0.07241      0.01224      0.00280      0.07093      0.01398      
31500   0.23000    0.06553    0.08727    0.00202      0.07267      0.01256      0.00242      0.07145      0.01349      
31600   0.22706    0.06434    0.08598    0.00225      0.07210      0.01197      0.00273      0.07069      0.01306      
31700   0.22843    0.06474    0.08648    0.00232      0.07259      0.01148      0.00253      0.07153      0.01230      
31800   0.22956    0.06513    0.08695    0.00238      0.07280      0.01153      0.00254      0.07155      0.01269      
31900   0.22858    0.06442    0.08627    0.00242      0.07286      0.01307      0.00325      0.07165      0.01295      
32000   0.22864    0.06454    0.08660    0.00199      0.07239      0.01563      0.00233      0.07116      0.01717      
32100   0.22798    0.06467    0.08623    0.00193      0.07252      0.01313      0.00228      0.07127      0.01496      
32200   0.22624    0.06404    0.08528    0.00209      0.07222      0.01303      0.00245      0.07118      0.01372      
32300   0.22583    0.06388    0.08522    0.00204      0.07177      0.01461      0.00262      0.07090      0.01515      
32400   0.22393    0.06330    0.08451    0.00203      0.07170      0.01195      0.00263      0.07078      0.01264      
32500   0.22602    0.06394    0.08535    0.00220      0.07225      0.01138      0.00263      0.07137      0.01233      
32600   0.22616    0.06386    0.08538    0.00213      0.07233      0.01229      0.00241      0.07119      0.01300      
32700   0.22401    0.06322    0.08448    0.00199      0.07197      0.01177      0.00269      0.07077      0.01232      
32800   0.22450    0.06326    0.08473    0.00228      0.07178      0.01227      0.00295      0.07064      0.01367      
32900   0.22414    0.06324    0.08452    0.00200      0.07168      0.01353      0.00253      0.07044      0.01565      
33000   0.22308    0.06277    0.08414    0.00186      0.07162      0.01342      0.00221      0.07040      0.01504      
33100   0.22404    0.06307    0.08428    0.00218      0.07216      0.01166      0.00300      0.07107      0.01265      
33200   0.22458    0.06335    0.08449    0.00198      0.07217      0.01294      0.00229      0.07083      0.01371      
33300   0.22506    0.06371    0.08474    0.00211      0.07212      0.01190      0.00255      0.07091      0.01339      
33400   0.22596    0.06395    0.08511    0.00182      0.07239      0.01347      0.00237      0.07113      0.01362      
33500   0.22256    0.06272    0.08383    0.00177      0.07177      0.01243      0.00226      0.07059      0.01348      
33600   0.22360    0.06324    0.08422    0.00169      0.07198      0.01232      0.00214      0.07089      0.01270      
33700   0.22341    0.06297    0.08410    0.00179      0.07216      0.01194      0.00219      0.07103      0.01267      
33800   0.22206    0.06246    0.08340    0.00198      0.07196      0.01132      0.00250      0.07054      0.01186      
33900   0.22242    0.06243    0.08341    0.00183      0.07219      0.01276      0.00219      0.07092      0.01342      
34000   0.22201    0.06226    0.08311    0.00206      0.07215      0.01219      0.00271      0.07104      0.01299      
34100   0.22014    0.06148    0.08234    0.00178      0.07173      0.01401      0.00224      0.07088      0.01475      
34200   0.21899    0.06081    0.08166    0.00195      0.07180      0.01383      0.00238      0.07069      0.01572      
34300   0.21894    0.06075    0.08167    0.00240      0.07170      0.01209      0.00325      0.07062      0.01303      
34400   0.21830    0.06049    0.08149    0.00215      0.07164      0.01264      0.00285      0.07035      0.01393      
34500   0.21870    0.06082    0.08166    0.00209      0.07167      0.01230      0.00239      0.07062      0.01338      
34600   0.21873    0.06084    0.08176    0.00193      0.07197      0.01115      0.00237      0.07087      0.01204      
34700   0.21759    0.06017    0.08111    0.00216      0.07162      0.01266      0.00253      0.07041      0.01371      
34800   0.21671    0.05993    0.08077    0.00201      0.07147      0.01263      0.00232      0.07038      0.01461      
34900   0.21753    0.06016    0.08092    0.00239      0.07155      0.01256      0.00310      0.07027      0.01419      
35000   0.21565    0.05962    0.08018    0.00209      0.07133      0.01217      0.00269      0.07001      0.01320      
35100   0.21649    0.05965    0.08038    0.00174      0.07211      0.01309      0.00220      0.07051      0.01440      
35200   0.21531    0.05918    0.07985    0.00195      0.07173      0.01301      0.00258      0.07067      0.01385      
35300   0.21419    0.05912    0.07951    0.00188      0.07123      0.01233      0.00235      0.07015      0.01373      
35400   0.21456    0.05903    0.07953    0.00223      0.07128      0.01248      0.00264      0.07025      0.01298      
35500   0.21404    0.05888    0.07935    0.00232      0.07102      0.01231      0.00273      0.07033      0.01317      
35600   0.21318    0.05856    0.07898    0.00217      0.07075      0.01358      0.00275      0.06986      0.01424      
35700   0.21363    0.05872    0.07919    0.00189      0.07105      0.01390      0.00249      0.06983      0.01380      
35800   0.21279    0.05845    0.07879    0.00220      0.07090      0.01223      0.00284      0.06975      0.01357      
35900   0.21369    0.05875    0.07910    0.00209      0.07135      0.01200      0.00271      0.07027      0.01255      
36000   0.21247    0.05839    0.07861    0.00211      0.07093      0.01217      0.00264      0.06999      0.01338      
36100   0.21246    0.05825    0.07850    0.00240      0.07089      0.01208      0.00320      0.06968      0.01293      
36200   0.21228    0.05835    0.07839    0.00226      0.07105      0.01122      0.00301      0.07007      0.01184      
36300   0.21284    0.05845    0.07857    0.00218      0.07119      0.01224      0.00257      0.07027      0.01315      
36400   0.21241    0.05821    0.07830    0.00225      0.07106      0.01293      0.00250      0.07012      0.01446      
36500   0.21231    0.05833    0.07830    0.00178      0.07156      0.01172      0.00233      0.07055      0.01278      
36600   0.21176    0.05819    0.07807    0.00186      0.07119      0.01228      0.00239      0.07049      0.01339      
36700   0.21060    0.05782    0.07757    0.00184      0.07093      0.01223      0.00218      0.07022      0.01253      
36800   0.21152    0.05787    0.07782    0.00210      0.07117      0.01283      0.00236      0.07044      0.01308      
36900   0.21115    0.05782    0.07767    0.00187      0.07149      0.01154      0.00240      0.07066      0.01205      
37000   0.21072    0.05776    0.07763    0.00174      0.07128      0.01158      0.00215      0.07067      0.01229      
37100   0.21044    0.05758    0.07741    0.00184      0.07102      0.01297      0.00217      0.07053      0.01200      
37200   0.20954    0.05720    0.07714    0.00163      0.07103      0.01267      0.00194      0.07015      0.01246      
37300   0.21084    0.05758    0.07763    0.00192      0.07120      0.01253      0.00254      0.07063      0.01217      
37400   0.20884    0.05682    0.07678    0.00184      0.07100      0.01208      0.00237      0.07029      0.01251      
37500   0.20856    0.05636    0.07628    0.00213      0.07105      0.01371      0.00241      0.07004      0.01336      
37600   0.20731    0.05613    0.07617    0.00185      0.07081      0.01174      0.00239      0.07001      0.01170      
37700   0.20755    0.05622    0.07615    0.00199      0.07076      0.01217      0.00248      0.06952      0.01317      
37800   0.20618    0.05587    0.07557    0.00209      0.07031      0.01171      0.00251      0.06939      0.01211      
37900   0.20684    0.05616    0.07578    0.00162      0.07104      0.01121      0.00206      0.06999      0.01168      
38000   0.20668    0.05595    0.07562    0.00197      0.07091      0.01117      0.00230      0.07027      0.01163      
38100   0.20745    0.05614    0.07583    0.00199      0.07107      0.01213      0.00247      0.07022      0.01253      
38200   0.20725    0.05597    0.07588    0.00185      0.07106      0.01242      0.00221      0.07004      0.01321      
38300   0.20708    0.05612    0.07578    0.00179      0.07107      0.01156      0.00217      0.07006      0.01228      
38400   0.20671    0.05591    0.07571    0.00192      0.07098      0.01098      0.00243      0.06990      0.01180      
38500   0.20706    0.05601    0.07561    0.00180      0.07082      0.01410      0.00220      0.06988      0.01233      
38600   0.20667    0.05592    0.07548    0.00205      0.07084      0.01189      0.00246      0.06999      0.01130      
38700   0.20689    0.05618    0.07553    0.00189      0.07093      0.01183      0.00244      0.06998      0.01286      
38800   0.20583    0.05568    0.07512    0.00195      0.07071      0.01181      0.00240      0.06984      0.01249      
38900   0.20585    0.05557    0.07503    0.00180      0.07093      0.01258      0.00235      0.07014      0.01401      
39000   0.20474    0.05519    0.07456    0.00163      0.07104      0.01160      0.00207      0.07023      0.01267      
39100   0.20415    0.05487    0.07437    0.00191      0.07057      0.01214      0.00231      0.07006      0.01368      
39200   0.20346    0.05451    0.07399    0.00197      0.07076      0.01114      0.00257      0.06994      0.01196      
39300   0.20288    0.05435    0.07370    0.00192      0.07054      0.01186      0.00246      0.06981      0.01260      
39400   0.20214    0.05390    0.07324    0.00175      0.07087      0.01185      0.00228      0.06974      0.01216      
39500   0.20137    0.05368    0.07290    0.00192      0.07044      0.01216      0.00213      0.06942      0.01363      
39600   0.20095    0.05348    0.07284    0.00180      0.07056      0.01139      0.00197      0.06927      0.01217      
39700   0.20123    0.05355    0.07292    0.00189      0.07049      0.01181      0.00241      0.06925      0.01302      
39800   0.20108    0.05336    0.07272    0.00175      0.07093      0.01158      0.00202      0.06991      0.01171      
39900   0.20214    0.05377    0.07320    0.00178      0.07102      0.01179      0.00221      0.06993      0.01280      
40000   0.20086    0.05332    0.07268    0.00210      0.07033      0.01212      0.00257      0.06959      0.01279      
40100   0.20063    0.05329    0.07252    0.00176      0.07063      0.01215      0.00221      0.06958      0.01367      
40200   0.19907    0.05272    0.07193    0.00194      0.07012      0.01183      0.00249      0.06910      0.01216      
40300   0.19966    0.05314    0.07206    0.00189      0.07031      0.01130      0.00224      0.06926      0.01167      
40400   0.20061    0.05334    0.07250    0.00196      0.07061      0.01104      0.00252      0.06969      0.01144      
40500   0.20030    0.05303    0.07225    0.00194      0.07081      0.01133      0.00255      0.06969      0.01117      
40600   0.19783    0.05229    0.07136    0.00168      0.07017      0.01162      0.00217      0.06929      0.01269      
40700   0.19915    0.05273    0.07164    0.00185      0.07034      0.01300      0.00214      0.06944      0.01538      
40800   0.19802    0.05199    0.07114    0.00210      0.07025      0.01274      0.00220      0.06933      0.01339      
40900   0.19831    0.05217    0.07131    0.00181      0.07054      0.01243      0.00229      0.06962      0.01374      
41000   0.19739    0.05181    0.07085    0.00172      0.07056      0.01224      0.00220      0.06989      0.01272      
41100   0.19772    0.05215    0.07108    0.00176      0.07039      0.01169      0.00225      0.06934      0.01263      
41200   0.19696    0.05187    0.07073    0.00188      0.07014      0.01172      0.00237      0.06928      0.01247      
41300   0.19773    0.05211    0.07098    0.00193      0.07043      0.01138      0.00243      0.06979      0.01218      
41400   0.19780    0.05195    0.07092    0.00194      0.07071      0.01133      0.00239      0.06997      0.01222      
41500   0.19695    0.05179    0.07059    0.00201      0.07028      0.01137      0.00252      0.06942      0.01191      
41600   0.19698    0.05183    0.07062    0.00187      0.07049      0.01084      0.00231      0.06944      0.01134      
41700   0.19617    0.05144    0.07025    0.00192      0.07035      0.01109      0.00238      0.06949      0.01118      
41800   0.19572    0.05118    0.06984    0.00197      0.07033      0.01204      0.00233      0.06946      0.01320      
41900   0.19568    0.05129    0.07006    0.00191      0.07013      0.01151      0.00236      0.06925      0.01264      
42000   0.19566    0.05117    0.07001    0.00186      0.07011      0.01253      0.00218      0.06911      0.01417      
42100   0.19508    0.05108    0.06980    0.00176      0.07009      0.01176      0.00215      0.06908      0.01255      
42200   0.19459    0.05090    0.06968    0.00189      0.06998      0.01072      0.00236      0.06913      0.01065      
42300   0.19474    0.05088    0.06970    0.00168      0.07022      0.01127      0.00207      0.06925      0.01125      
42400   0.19404    0.05058    0.06928    0.00204      0.06995      0.01098      0.00260      0.06893      0.01185      
42500   0.19454    0.05075    0.06945    0.00167      0.07043      0.01120      0.00202      0.06959      0.01171      
42600   0.19349    0.05041    0.06900    0.00169      0.07022      0.01086      0.00217      0.06936      0.01116      
42700   0.19375    0.05021    0.06896    0.00160      0.07048      0.01257      0.00192      0.06986      0.01366      
42800   0.19330    0.05026    0.06884    0.00181      0.07015      0.01119      0.00215      0.06922      0.01153      
42900   0.19288    0.04996    0.06858    0.00184      0.07017      0.01171      0.00228      0.06919      0.01272      
43000   0.19267    0.04971    0.06853    0.00186      0.07041      0.01080      0.00241      0.06931      0.01133      
43100   0.19169    0.04946    0.06802    0.00194      0.06981      0.01225      0.00241      0.06883      0.01316      
43200   0.19208    0.04971    0.06818    0.00169      0.07013      0.01182      0.00222      0.06917      0.01187      
43300   0.19226    0.04966    0.06826    0.00195      0.06994      0.01228      0.00265      0.06925      0.01271      
43400   0.19112    0.04919    0.06788    0.00189      0.06991      0.01123      0.00235      0.06907      0.01186      
43500   0.19080    0.04915    0.06770    0.00192      0.06980      0.01115      0.00246      0.06894      0.01106      
43600   0.19090    0.04915    0.06767    0.00160      0.07005      0.01222      0.00198      0.06915      0.01268      
43700   0.19044    0.04891    0.06746    0.00191      0.06993      0.01115      0.00255      0.06885      0.01231      
43800   0.19116    0.04895    0.06767    0.00214      0.07001      0.01198      0.00224      0.06909      0.01203      
43900   0.19027    0.04872    0.06728    0.00177      0.06998      0.01263      0.00227      0.06913      0.01325      
44000   0.18940    0.04844    0.06702    0.00198      0.06980      0.01076      0.00242      0.06873      0.01115      
44100   0.18956    0.04832    0.06704    0.00190      0.07002      0.01135      0.00243      0.06931      0.01181      
44200   0.19061    0.04875    0.06751    0.00222      0.06998      0.01071      0.00264      0.06920      0.01100      
44300   0.18978    0.04850    0.06722    0.00185      0.07004      0.01087      0.00233      0.06898      0.01144      
44400   0.19001    0.04866    0.06714    0.00210      0.07000      0.01056      0.00259      0.06897      0.01085      
44500   0.18997    0.04862    0.06722    0.00190      0.06973      0.01245      0.00210      0.06887      0.01266      
44600   0.18998    0.04857    0.06723    0.00187      0.07003      0.01140      0.00239      0.06900      0.01201      
44700   0.18936    0.04838    0.06700    0.00187      0.06987      0.01123      0.00235      0.06905      0.01181      
44800   0.18874    0.04819    0.06678    0.00167      0.06973      0.01187      0.00216      0.06862      0.01306      
44900   0.18917    0.04819    0.06688    0.00218      0.06962      0.01152      0.00281      0.06870      0.01269      
45000   0.18838    0.04808    0.06652    0.00188      0.06972      0.01090      0.00242      0.06883      0.01114      
45100   0.18871    0.04824    0.06659    0.00187      0.06969      0.01165      0.00235      0.06897      0.01163      
45200   0.18779    0.04792    0.06624    0.00199      0.06933      0.01154      0.00274      0.06842      0.01189      
45300   0.18880    0.04818    0.06665    0.00208      0.06966      0.01110      0.00256      0.06858      0.01181      
45400   0.18819    0.04808    0.06631    0.00197      0.06952      0.01153      0.00244      0.06860      0.01187      
45500   0.18745    0.04787    0.06604    0.00170      0.06928      0.01277      0.00216      0.06828      0.01402      
45600   0.18780    0.04797    0.06620    0.00204      0.06926      0.01167      0.00262      0.06816      0.01199      
45700   0.18879    0.04826    0.06656    0.00194      0.06981      0.01111      0.00238      0.06893      0.01148      
45800   0.18763    0.04788    0.06609    0.00175      0.06954      0.01189      0.00223      0.06866      0.01228      
45900   0.18671    0.04752    0.06557    0.00190      0.06951      0.01104      0.00244      0.06848      0.01147      
46000   0.18684    0.04741    0.06573    0.00194      0.06950      0.01126      0.00227      0.06865      0.01217      
46100   0.18673    0.04754    0.06572    0.00189      0.06931      0.01132      0.00252      0.06855      0.01178      
46200   0.18621    0.04728    0.06552    0.00196      0.06924      0.01103      0.00257      0.06828      0.01160      
46300   0.18618    0.04725    0.06550    0.00176      0.06938      0.01144      0.00227      0.06857      0.01161      
46400   0.18655    0.04741    0.06571    0.00203      0.06918      0.01108      0.00228      0.06837      0.01140      
46500   0.18631    0.04722    0.06540    0.00192      0.06941      0.01176      0.00224      0.06849      0.01251      
46600   0.18616    0.04729    0.06540    0.00195      0.06930      0.01109      0.00233      0.06846      0.01082      
46700   0.18663    0.04745    0.06549    0.00173      0.06939      0.01285      0.00227      0.06860      0.01332      
46800   0.18557    0.04713    0.06512    0.00169      0.06925      0.01188      0.00211      0.06844      0.01255      
46900   0.18575    0.04711    0.06516    0.00193      0.06936      0.01097      0.00231      0.06833      0.01123      
47000   0.18574    0.04712    0.06517    0.00193      0.06936      0.01085      0.00251      0.06886      0.01121      
47100   0.18510    0.04689    0.06494    0.00179      0.06911      0.01182      0.00228      0.06828      0.01269      
47200   0.18520    0.04679    0.06488    0.00172      0.06929      0.01260      0.00217      0.06817      0.01245      
47300   0.18499    0.04669    0.06478    0.00163      0.06920      0.01352      0.00191      0.06823      0.01532      
47400   0.18441    0.04652    0.06454    0.00166      0.06940      0.01140      0.00197      0.06821      0.01209      
47500   0.18459    0.04660    0.06453    0.00185      0.06932      0.01147      0.00231      0.06815      0.01214      
47600   0.18460    0.04664    0.06457    0.00166      0.06921      0.01253      0.00209      0.06813      0.01343      
47700   0.18435    0.04644    0.06438    0.00186      0.06946      0.01105      0.00233      0.06866      0.01135      
47800   0.18370    0.04630    0.06414    0.00184      0.06916      0.01130      0.00245      0.06832      0.01140      
47900   0.18418    0.04650    0.06436    0.00199      0.06914      0.01100      0.00218      0.06837      0.01121      
48000   0.18315    0.04601    0.06387    0.00178      0.06923      0.01128      0.00204      0.06823      0.01234      
48100   0.18326    0.04589    0.06386    0.00208      0.06930      0.01063      0.00276      0.06841      0.01091      
48200   0.18252    0.04557    0.06361    0.00196      0.06922      0.01083      0.00231      0.06817      0.01128      
48300   0.18236    0.04546    0.06359    0.00182      0.06926      0.01117      0.00214      0.06832      0.01156      
48400   0.18169    0.04517    0.06328    0.00176      0.06903      0.01227      0.00212      0.06800      0.01244      
48500   0.18203    0.04536    0.06338    0.00163      0.06924      0.01214      0.00206      0.06833      0.01342      
48600   0.18063    0.04472    0.06271    0.00178      0.06923      0.01096      0.00225      0.06807      0.01066      
48700   0.18024    0.04462    0.06260    0.00178      0.06900      0.01122      0.00224      0.06799      0.01173      
48800   0.17997    0.04430    0.06239    0.00165      0.06935      0.01138      0.00200      0.06838      0.01159      
48900   0.18010    0.04439    0.06254    0.00210      0.06881      0.01136      0.00281      0.06776      0.01134      
49000   0.17973    0.04435    0.06235    0.00183      0.06902      0.01098      0.00219      0.06789      0.01129      
49100   0.17926    0.04410    0.06209    0.00188      0.06895      0.01117      0.00244      0.06791      0.01152      
49200   0.17918    0.04404    0.06202    0.00170      0.06922      0.01097      0.00207      0.06826      0.01153      
49300   0.17911    0.04393    0.06194    0.00169      0.06908      0.01237      0.00222      0.06808      0.01263      
49400   0.17927    0.04416    0.06201    0.00172      0.06916      0.01110      0.00218      0.06834      0.01182      
49500   0.17889    0.04410    0.06188    0.00175      0.06898      0.01087      0.00217      0.06819      0.01097      
49600   0.17907    0.04409    0.06193    0.00167      0.06904      0.01168      0.00201      0.06830      0.01171      
49700   0.17927    0.04417    0.06204    0.00174      0.06914      0.01091      0.00232      0.06828      0.01127      
49800   0.17830    0.04384    0.06173    0.00175      0.06862      0.01185      0.00229      0.06790      0.01187      
49900   0.17906    0.04411    0.06192    0.00184      0.06893      0.01125      0.00238      0.06791      0.01200      
50000   0.17839    0.04372    0.06167    0.00174      0.06900      0.01124      0.00225      0.06811      0.01143      
50100   0.17820    0.04372    0.06155    0.00190      0.06882      0.01106      0.00222      0.06770      0.01107      
50200   0.17735    0.04329    0.06124    0.00179      0.06868      0.01170      0.00218      0.06788      0.01275      
50300   0.17711    0.04335    0.06110    0.00169      0.06869      0.01136      0.00218      0.06775      0.01216      
50400   0.17750    0.04344    0.06120    0.00194      0.06867      0.01118      0.00262      0.06790      0.01165      
50500   0.17702    0.04332    0.06105    0.00174      0.06868      0.01117      0.00230      0.06780      0.01197      
50600   0.17778    0.04342    0.06124    0.00172      0.06897      0.01212      0.00201      0.06802      0.01321      
50700   0.17705    0.04331    0.06107    0.00161      0.06886      0.01100      0.00207      0.06797      0.01163      
50800   0.17717    0.04324    0.06116    0.00176      0.06875      0.01129      0.00213      0.06789      0.01210      
50900   0.17735    0.04341    0.06122    0.00161      0.06886      0.01127      0.00193      0.06794      0.01196      
51000   0.17640    0.04308    0.06078    0.00170      0.06872      0.01058      0.00201      0.06782      0.01085      
51100   0.17698    0.04329    0.06101    0.00176      0.06857      0.01170      0.00216      0.06768      0.01171      
51200   0.17619    0.04319    0.06074    0.00185      0.06827      0.01069      0.00230      0.06754      0.01105      
51300   0.17669    0.04326    0.06080    0.00161      0.06888      0.01069      0.00201      0.06814      0.01097      
51400   0.17653    0.04329    0.06081    0.00173      0.06857      0.01067      0.00221      0.06781      0.01119      
51500   0.17664    0.04336    0.06080    0.00156      0.06876      0.01083      0.00191      0.06810      0.01110      
51600   0.17620    0.04304    0.06062    0.00181      0.06865      0.01043      0.00202      0.06772      0.01069      
51700   0.17611    0.04296    0.06055    0.00178      0.06867      0.01069      0.00223      0.06773      0.01065      
51800   0.17579    0.04282    0.06034    0.00178      0.06862      0.01117      0.00228      0.06771      0.01144      
51900   0.17559    0.04278    0.06025    0.00168      0.06866      0.01113      0.00204      0.06784      0.01147      
52000   0.17634    0.04290    0.06053    0.00179      0.06890      0.01110      0.00214      0.06822      0.01108      
52100   0.17606    0.04303    0.06056    0.00176      0.06855      0.01078      0.00206      0.06776      0.01136      
52200   0.17591    0.04301    0.06045    0.00154      0.06856      0.01175      0.00187      0.06771      0.01273      
52300   0.17601    0.04312    0.06053    0.00182      0.06829      0.01124      0.00239      0.06762      0.01168      
52400   0.17584    0.04289    0.06028    0.00163      0.06890      0.01072      0.00191      0.06792      0.01140      
52500   0.17595    0.04287    0.06038    0.00185      0.06867      0.01094      0.00220      0.06795      0.01145      
52600   0.17466    0.04232    0.05991    0.00178      0.06848      0.01088      0.00226      0.06764      0.01118      
52700   0.17509    0.04262    0.06000    0.00177      0.06854      0.01082      0.00204      0.06760      0.01131      
52800   0.17402    0.04217    0.05963    0.00174      0.06821      0.01138      0.00225      0.06730      0.01192      
52900   0.17405    0.04205    0.05968    0.00173      0.06841      0.01088      0.00225      0.06732      0.01154      
53000   0.17416    0.04202    0.05970    0.00175      0.06846      0.01111      0.00228      0.06749      0.01138      
53100   0.17368    0.04173    0.05949    0.00162      0.06844      0.01201      0.00201      0.06730      0.01227      
53200   0.17367    0.04184    0.05944    0.00193      0.06831      0.01075      0.00217      0.06750      0.01121      
53300   0.17391    0.04174    0.05935    0.00186      0.06850      0.01235      0.00210      0.06744      0.01295      
53400   0.17269    0.04148    0.05896    0.00175      0.06827      0.01112      0.00225      0.06741      0.01177      
53500   0.17268    0.04155    0.05895    0.00166      0.06834      0.01084      0.00194      0.06751      0.01097      
53600   0.17315    0.04169    0.05914    0.00188      0.06831      0.01069      0.00223      0.06745      0.01116      
53700   0.17338    0.04191    0.05918    0.00190      0.06815      0.01119      0.00221      0.06705      0.01088      
53800   0.17353    0.04191    0.05916    0.00190      0.06832      0.01124      0.00227      0.06741      0.01100      
53900   0.17407    0.04222    0.05935    0.00176      0.06853      0.01104      0.00233      0.06732      0.01126      
54000   0.17363    0.04194    0.05924    0.00175      0.06840      0.01150      0.00219      0.06730      0.01101      
54100   0.17338    0.04197    0.05909    0.00179      0.06824      0.01146      0.00226      0.06729      0.01142      
54200   0.17335    0.04199    0.05906    0.00169      0.06832      0.01146      0.00217      0.06738      0.01144      
54300   0.17342    0.04198    0.05907    0.00165      0.06852      0.01106      0.00215      0.06783      0.01150      
54400   0.17379    0.04214    0.05926    0.00163      0.06856      0.01103      0.00211      0.06753      0.01152      
54500   0.17387    0.04219    0.05935    0.00170      0.06847      0.01078      0.00213      0.06755      0.01134      
54600   0.17398    0.04232    0.05935    0.00183      0.06833      0.01078      0.00214      0.06731      0.01120      
54700   0.17453    0.04248    0.05964    0.00157      0.06867      0.01083      0.00193      0.06755      0.01140      
54800   0.17468    0.04263    0.05963    0.00188      0.06825      0.01141      0.00222      0.06731      0.01157      
54900   0.17481    0.04267    0.05974    0.00178      0.06848      0.01067      0.00210      0.06769      0.01121      
55000   0.17522    0.04268    0.05983    0.00208      0.06845      0.01090      0.00227      0.06778      0.01160      
55100   0.17397    0.04235    0.05944    0.00164      0.06829      0.01121      0.00211      0.06740      0.01133      
55200   0.17412    0.04234    0.05945    0.00182      0.06833      0.01086      0.00223      0.06728      0.01119      
55300   0.17394    0.04225    0.05940    0.00174      0.06837      0.01091      0.00224      0.06741      0.01123      
55400   0.17360    0.04217    0.05923    0.00178      0.06829      0.01062      0.00222      0.06739      0.01097      
55500   0.17358    0.04211    0.05923    0.00177      0.06835      0.01057      0.00233      0.06733      0.01108      
55600   0.17406    0.04213    0.05930    0.00168      0.06841      0.01268      0.00201      0.06722      0.01368      
55700   0.17343    0.04197    0.05905    0.00177      0.06828      0.01180      0.00228      0.06709      0.01198      
55800   0.17337    0.04191    0.05904    0.00189      0.06837      0.01083      0.00215      0.06762      0.01131      
55900   0.17308    0.04182    0.05894    0.00176      0.06841      0.01077      0.00221      0.06755      0.01149      
56000   0.17286    0.04164    0.05880    0.00183      0.06847      0.01057      0.00203      0.06770      0.01107      
56100   0.17258    0.04144    0.05867    0.00181      0.06842      0.01125      0.00237      0.06746      0.01178      
56200   0.17152    0.04123    0.05820    0.00161      0.06826      0.01106      0.00200      0.06734      0.01198      
56300   0.17155    0.04122    0.05823    0.00178      0.06822      0.01051      0.00229      0.06735      0.01081      
56400   0.17189    0.04126    0.05834    0.00184      0.06835      0.01050      0.00240      0.06751      0.01090      
56500   0.17174    0.04114    0.05826    0.00178      0.06829      0.01133      0.00209      0.06700      0.01143      
56600   0.17095    0.04083    0.05798    0.00170      0.06825      0.01095      0.00220      0.06734      0.01162      
56700   0.17094    0.04093    0.05802    0.00200      0.06784      0.01073      0.00241      0.06687      0.01123      
56800   0.17122    0.04100    0.05807    0.00181      0.06805      0.01147      0.00223      0.06718      0.01249      
56900   0.17067    0.04081    0.05782    0.00184      0.06804      0.01085      0.00213      0.06700      0.01151      
57000   0.17086    0.04084    0.05791    0.00174      0.06819      0.01092      0.00222      0.06731      0.01150      
57100   0.17100    0.04079    0.05796    0.00161      0.06843      0.01104      0.00196      0.06742      0.01193      
57200   0.17166    0.04097    0.05811    0.00168      0.06860      0.01153      0.00201      0.06778      0.01185      
57300   0.17171    0.04113    0.05826    0.00178      0.06819      0.01172      0.00205      0.06712      0.01151      
57400   0.17114    0.04096    0.05803    0.00175      0.06818      0.01109      0.00205      0.06725      0.01124      
57500   0.17011    0.04078    0.05764    0.00179      0.06777      0.01067      0.00222      0.06696      0.01095      
57600   0.17053    0.04084    0.05776    0.00179      0.06788      0.01125      0.00242      0.06692      0.01150      
57700   0.17097    0.04105    0.05791    0.00179      0.06796      0.01136      0.00231      0.06679      0.01196      
57800   0.17074    0.04100    0.05778    0.00160      0.06809      0.01138      0.00193      0.06703      0.01178      
57900   0.17052    0.04091    0.05781    0.00166      0.06799      0.01082      0.00211      0.06681      0.01115      
58000   0.17027    0.04066    0.05762    0.00183      0.06797      0.01097      0.00236      0.06715      0.01128      
58100   0.17024    0.04076    0.05766    0.00162      0.06802      0.01088      0.00211      0.06699      0.01119      
58200   0.17054    0.04075    0.05777    0.00172      0.06816      0.01071      0.00214      0.06727      0.01104      
58300   0.17032    0.04059    0.05763    0.00172      0.06805      0.01166      0.00230      0.06694      0.01271      
58400   0.16996    0.04062    0.05751    0.00163      0.06797      0.01110      0.00212      0.06687      0.01188      
58500   0.16990    0.04035    0.05735    0.00158      0.06841      0.01102      0.00203      0.06723      0.01142      
58600   0.16957    0.04026    0.05726    0.00162      0.06828      0.01076      0.00203      0.06739      0.01103      
58700   0.16989    0.04032    0.05734    0.00170      0.06833      0.01098      0.00210      0.06730      0.01149      
58800   0.16949    0.04018    0.05720    0.00172      0.06813      0.01126      0.00199      0.06711      0.01151      
58900   0.16968    0.04019    0.05733    0.00177      0.06812      0.01130      0.00217      0.06701      0.01203      
59000   0.16948    0.04017    0.05724    0.00155      0.06830      0.01114      0.00197      0.06706      0.01183      
59100   0.16952    0.04032    0.05732    0.00155      0.06800      0.01164      0.00191      0.06711      0.01262      
59200   0.16936    0.04021    0.05721    0.00189      0.06798      0.01030      0.00238      0.06697      0.01051      
59300   0.16862    0.03986    0.05683    0.00169      0.06787      0.01178      0.00214      0.06684      0.01186      
59400   0.16968    0.04032    0.05734    0.00172      0.06812      0.01086      0.00212      0.06712      0.01159      
59500   0.16937    0.04031    0.05717    0.00165      0.06798      0.01132      0.00202      0.06703      0.01232      
59600   0.16938    0.04030    0.05717    0.00157      0.06815      0.01095      0.00202      0.06711      0.01130      
59700   0.16896    0.04022    0.05711    0.00146      0.06805      0.01066      0.00184      0.06692      0.01073      
59800   0.16932    0.04036    0.05718    0.00160      0.06797      0.01103      0.00192      0.06698      0.01184      
59900   0.16906    0.04023    0.05704    0.00158      0.06782      0.01199      0.00201      0.06659      0.01271      
60000   0.16957    0.04034    0.05730    0.00177      0.06798      0.01091      0.00227      0.06682      0.01098      
60100   0.16942    0.04024    0.05727    0.00170      0.06797      0.01120      0.00223      0.06662      0.01135      
60200   0.16979    0.04050    0.05742    0.00164      0.06813      0.01051      0.00196      0.06714      0.01098      
60300   0.16926    0.04035    0.05720    0.00173      0.06779      0.01096      0.00218      0.06662      0.01188      
60400   0.16936    0.04037    0.05721    0.00170      0.06787      0.01106      0.00228      0.06658      0.01170      
60500   0.16932    0.04020    0.05718    0.00170      0.06807      0.01080      0.00209      0.06686      0.01138      
60600   0.16864    0.04002    0.05687    0.00167      0.06782      0.01124      0.00216      0.06677      0.01200      
60700   0.16937    0.04022    0.05701    0.00165      0.06816      0.01165      0.00214      0.06697      0.01183      
60800   0.16921    0.04027    0.05709    0.00172      0.06803      0.01050      0.00224      0.06689      0.01061      
60900   0.16961    0.04031    0.05727    0.00162      0.06822      0.01096      0.00202      0.06712      0.01101      
61000   0.16863    0.04006    0.05685    0.00186      0.06767      0.01099      0.00243      0.06630      0.01122      
61100   0.16852    0.04003    0.05682    0.00163      0.06783      0.01105      0.00212      0.06671      0.01089      
61200   0.16885    0.03998    0.05678    0.00184      0.06812      0.01067      0.00217      0.06722      0.01117      
61300   0.16776    0.03982    0.05645    0.00158      0.06774      0.01085      0.00200      0.06665      0.01135      
61400   0.16797    0.03969    0.05647    0.00181      0.06771      0.01138      0.00233      0.06649      0.01072      
61500   0.16831    0.03983    0.05659    0.00181      0.06778      0.01149      0.00244      0.06676      0.01186      
[...]
133800  0.10785    0.01183    0.02878    0.00138      0.06382      0.01016      0.00178      0.06319      0.01047      
133900  0.10784    0.01183    0.02878    0.00138      0.06383      0.01015      0.00178      0.06319      0.01043      
134000  0.10784    0.01183    0.02877    0.00138      0.06382      0.01014      0.00179      0.06319      0.01043      
134100  0.10783    0.01182    0.02877    0.00138      0.06383      0.01015      0.00179      0.06319      0.01045      
134200  0.10782    0.01182    0.02877    0.00138      0.06382      0.01016      0.00179      0.06318      0.01045      
134300  0.10781    0.01181    0.02876    0.00138      0.06383      0.01016      0.00178      0.06320      0.01046      
134400  0.10781    0.01181    0.02876    0.00138      0.06383      0.01016      0.00179      0.06320      0.01044      
134500  0.10780    0.01181    0.02875    0.00137      0.06383      0.01016      0.00177      0.06320      0.01045      
134600  0.10779    0.01180    0.02875    0.00138      0.06382      0.01015      0.00179      0.06319      0.01045      
134700  0.10778    0.01180    0.02875    0.00138      0.06383      0.01015      0.00178      0.06319      0.01044      
134800  0.10778    0.01180    0.02874    0.00137      0.06383      0.01015      0.00177      0.06320      0.01044      
134900  0.10777    0.01179    0.02874    0.00137      0.06383      0.01016      0.00177      0.06320      0.01046      
135000  0.10776    0.01179    0.02874    0.00137      0.06382      0.01018      0.00178      0.06319      0.01047      
135100  0.10776    0.01179    0.02873    0.00137      0.06383      0.01015      0.00177      0.06320      0.01043      
135200  0.10775    0.01179    0.02873    0.00137      0.06383      0.01014      0.00177      0.06320      0.01041      
135300  0.10774    0.01178    0.02872    0.00138      0.06383      0.01015      0.00178      0.06319      0.01043      
135400  0.10774    0.01178    0.02872    0.00137      0.06383      0.01016      0.00177      0.06319      0.01045      
135500  0.10773    0.01177    0.02872    0.00138      0.06383      0.01016      0.00178      0.06319      0.01046      
135600  0.10772    0.01177    0.02871    0.00137      0.06383      0.01017      0.00177      0.06319      0.01048      
135700  0.10771    0.01177    0.02871    0.00138      0.06383      0.01018      0.00177      0.06319      0.01049      
135800  0.10771    0.01177    0.02871    0.00138      0.06382      0.01017      0.00178      0.06319      0.01048      
135900  0.10770    0.01177    0.02870    0.00137      0.06382      0.01017      0.00177      0.06319      0.01047      
136000  0.10769    0.01176    0.02870    0.00137      0.06383      0.01015      0.00177      0.06319      0.01045      
136100  0.10768    0.01176    0.02869    0.00137      0.06383      0.01016      0.00178      0.06319      0.01046      
136200  0.10768    0.01176    0.02869    0.00137      0.06383      0.01016      0.00177      0.06319      0.01044      
136300  0.10767    0.01175    0.02869    0.00137      0.06382      0.01017      0.00177      0.06319      0.01048      
136400  0.10766    0.01175    0.02868    0.00138      0.06382      0.01017      0.00178      0.06320      0.01046      
136500  0.10765    0.01174    0.02868    0.00138      0.06382      0.01017      0.00178      0.06319      0.01047      
136600  0.10765    0.01174    0.02867    0.00137      0.06382      0.01015      0.00177      0.06320      0.01043      
136700  0.10764    0.01174    0.02867    0.00138      0.06382      0.01016      0.00178      0.06320      0.01044      
136800  0.10763    0.01173    0.02867    0.00138      0.06381      0.01016      0.00178      0.06319      0.01044      
136900  0.10762    0.01173    0.02866    0.00138      0.06382      0.01015      0.00178      0.06319      0.01043      
137000  0.10761    0.01173    0.02866    0.00138      0.06381      0.01016      0.00178      0.06319      0.01046      
137100  0.10760    0.01173    0.02865    0.00138      0.06381      0.01016      0.00178      0.06319      0.01045      
137200  0.10760    0.01172    0.02865    0.00137      0.06382      0.01017      0.00176      0.06321      0.01047      
137300  0.10759    0.01172    0.02865    0.00137      0.06382      0.01015      0.00177      0.06320      0.01043      
137400  0.10758    0.01172    0.02864    0.00138      0.06381      0.01015      0.00178      0.06319      0.01043      
137500  0.10757    0.01172    0.02864    0.00138      0.06381      0.01014      0.00178      0.06319      0.01041      
137600  0.10757    0.01171    0.02863    0.00138      0.06381      0.01016      0.00178      0.06319      0.01044      
137700  0.10756    0.01171    0.02863    0.00137      0.06381      0.01016      0.00177      0.06319      0.01044      
137800  0.10755    0.01171    0.02863    0.00138      0.06381      0.01014      0.00178      0.06320      0.01041      
137900  0.10754    0.01170    0.02862    0.00138      0.06381      0.01014      0.00177      0.06319      0.01041      
138000  0.10753    0.01170    0.02862    0.00138      0.06381      0.01014      0.00178      0.06319      0.01041      
138100  0.10753    0.01170    0.02862    0.00138      0.06381      0.01014      0.00178      0.06318      0.01041      
138200  0.10752    0.01169    0.02861    0.00139      0.06380      0.01013      0.00179      0.06319      0.01039      
138300  0.10751    0.01169    0.02861    0.00137      0.06381      0.01015      0.00176      0.06319      0.01044      
138400  0.10750    0.01168    0.02860    0.00138      0.06381      0.01016      0.00178      0.06318      0.01045      
138500  0.10750    0.01168    0.02860    0.00137      0.06381      0.01017      0.00177      0.06319      0.01048      
138600  0.10749    0.01168    0.02859    0.00137      0.06381      0.01015      0.00177      0.06319      0.01043      
138700  0.10748    0.01167    0.02859    0.00138      0.06381      0.01015      0.00178      0.06318      0.01044      
138800  0.10747    0.01167    0.02859    0.00137      0.06381      0.01015      0.00177      0.06319      0.01044      
138900  0.10747    0.01167    0.02858    0.00137      0.06382      0.01014      0.00176      0.06319      0.01042      
139000  0.10746    0.01167    0.02858    0.00138      0.06380      0.01015      0.00178      0.06318      0.01042      
139100  0.10745    0.01167    0.02858    0.00137      0.06381      0.01015      0.00177      0.06319      0.01043      
139200  0.10745    0.01166    0.02857    0.00137      0.06382      0.01014      0.00176      0.06319      0.01040      
139300  0.10744    0.01166    0.02857    0.00137      0.06381      0.01014      0.00177      0.06319      0.01040      
139400  0.10743    0.01166    0.02857    0.00138      0.06381      0.01013      0.00177      0.06318      0.01039      
139500  0.10743    0.01166    0.02856    0.00137      0.06380      0.01017      0.00177      0.06319      0.01046      
139600  0.10742    0.01165    0.02856    0.00137      0.06381      0.01015      0.00177      0.06319      0.01043      
139700  0.10741    0.01165    0.02856    0.00137      0.06381      0.01015      0.00177      0.06319      0.01044      
139800  0.10741    0.01164    0.02855    0.00137      0.06381      0.01015      0.00177      0.06320      0.01043      
139900  0.10740    0.01164    0.02855    0.00137      0.06381      0.01016      0.00177      0.06319      0.01044      
140000  0.10739    0.01164    0.02854    0.00137      0.06381      0.01015      0.00178      0.06319      0.01044      
140100  0.10739    0.01163    0.02854    0.00137      0.06381      0.01015      0.00177      0.06319      0.01043      
140200  0.10738    0.01163    0.02854    0.00137      0.06381      0.01015      0.00178      0.06319      0.01042      
140300  0.10737    0.01163    0.02853    0.00137      0.06381      0.01016      0.00177      0.06320      0.01043      
140400  0.10737    0.01163    0.02853    0.00137      0.06381      0.01015      0.00177      0.06319      0.01042      
140500  0.10736    0.01163    0.02853    0.00137      0.06381      0.01016      0.00177      0.06320      0.01042      
140600  0.10735    0.01162    0.02852    0.00137      0.06381      0.01014      0.00178      0.06319      0.01040      
140700  0.10734    0.01162    0.02852    0.00137      0.06381      0.01015      0.00177      0.06319      0.01042      
140800  0.10733    0.01161    0.02851    0.00137      0.06381      0.01015      0.00176      0.06320      0.01043      
140900  0.10733    0.01161    0.02851    0.00138      0.06380      0.01014      0.00179      0.06318      0.01040      
141000  0.10732    0.01161    0.02851    0.00137      0.06381      0.01015      0.00177      0.06319      0.01042      
141100  0.10731    0.01160    0.02850    0.00137      0.06380      0.01015      0.00178      0.06318      0.01042      
141200  0.10731    0.01160    0.02850    0.00137      0.06381      0.01015      0.00177      0.06319      0.01042      
141300  0.10730    0.01160    0.02850    0.00137      0.06380      0.01015      0.00177      0.06318      0.01043      
141400  0.10729    0.01160    0.02849    0.00137      0.06380      0.01015      0.00176      0.06319      0.01043      
141500  0.10729    0.01159    0.02849    0.00137      0.06380      0.01015      0.00177      0.06318      0.01041      
141600  0.10728    0.01159    0.02849    0.00138      0.06380      0.01015      0.00178      0.06318      0.01041      
141700  0.10727    0.01159    0.02848    0.00137      0.06380      0.01015      0.00177      0.06318      0.01041      
141800  0.10726    0.01158    0.02848    0.00137      0.06380      0.01015      0.00177      0.06318      0.01043      
141900  0.10726    0.01158    0.02847    0.00137      0.06380      0.01016      0.00178      0.06317      0.01045      
142000  0.10725    0.01158    0.02847    0.00138      0.06380      0.01015      0.00178      0.06317      0.01041      
142100  0.10724    0.01157    0.02847    0.00137      0.06380      0.01015      0.00177      0.06318      0.01043      
142200  0.10724    0.01157    0.02846    0.00137      0.06380      0.01015      0.00177      0.06318      0.01042      
142300  0.10723    0.01157    0.02846    0.00137      0.06380      0.01015      0.00177      0.06318      0.01042      
142400  0.10722    0.01157    0.02845    0.00137      0.06380      0.01015      0.00177      0.06318      0.01042      
142500  0.10721    0.01156    0.02845    0.00138      0.06379      0.01015      0.00178      0.06317      0.01044      
142600  0.10721    0.01156    0.02845    0.00137      0.06380      0.01016      0.00177      0.06318      0.01045      
142700  0.10720    0.01155    0.02845    0.00138      0.06379      0.01015      0.00178      0.06318      0.01041      
142800  0.10720    0.01155    0.02844    0.00138      0.06380      0.01013      0.00178      0.06319      0.01040      
142900  0.10719    0.01155    0.02844    0.00137      0.06380      0.01014      0.00178      0.06319      0.01040      
143000  0.10718    0.01155    0.02843    0.00137      0.06380      0.01015      0.00177      0.06318      0.01042      
143100  0.10718    0.01154    0.02843    0.00137      0.06380      0.01014      0.00177      0.06319      0.01040      
143200  0.10717    0.01154    0.02843    0.00137      0.06380      0.01014      0.00177      0.06318      0.01040      
143300  0.10716    0.01154    0.02842    0.00137      0.06380      0.01014      0.00177      0.06318      0.01039      
143400  0.10715    0.01153    0.02842    0.00137      0.06380      0.01015      0.00177      0.06318      0.01042      
143500  0.10715    0.01153    0.02842    0.00138      0.06380      0.01013      0.00179      0.06317      0.01038      
143600  0.10714    0.01153    0.02841    0.00137      0.06380      0.01014      0.00177      0.06318      0.01041      
143700  0.10714    0.01153    0.02841    0.00138      0.06380      0.01013      0.00178      0.06318      0.01040      
143800  0.10713    0.01152    0.02840    0.00138      0.06380      0.01013      0.00178      0.06317      0.01039      
143900  0.10712    0.01152    0.02840    0.00138      0.06380      0.01013      0.00178      0.06317      0.01039      
144000  0.10712    0.01152    0.02840    0.00137      0.06380      0.01014      0.00177      0.06318      0.01042      
144100  0.10711    0.01152    0.02839    0.00137      0.06380      0.01014      0.00178      0.06317      0.01042      
144200  0.10710    0.01151    0.02839    0.00137      0.06380      0.01014      0.00177      0.06318      0.01041      
144300  0.10710    0.01151    0.02839    0.00138      0.06379      0.01014      0.00178      0.06317      0.01041      
144400  0.10709    0.01151    0.02838    0.00138      0.06379      0.01013      0.00179      0.06317      0.01039      
144500  0.10708    0.01151    0.02838    0.00138      0.06379      0.01015      0.00178      0.06317      0.01042      
144600  0.10708    0.01150    0.02838    0.00137      0.06379      0.01015      0.00178      0.06317      0.01042      
144700  0.10707    0.01150    0.02837    0.00137      0.06379      0.01014      0.00177      0.06317      0.01040      
144800  0.10706    0.01150    0.02837    0.00137      0.06379      0.01015      0.00177      0.06317      0.01041      
144900  0.10705    0.01150    0.02836    0.00137      0.06379      0.01014      0.00177      0.06317      0.01040      
145000  0.10705    0.01149    0.02836    0.00138      0.06379      0.01015      0.00178      0.06316      0.01041      
145100  0.10704    0.01149    0.02836    0.00138      0.06379      0.01015      0.00178      0.06316      0.01042      
145200  0.10703    0.01148    0.02835    0.00138      0.06379      0.01013      0.00179      0.06316      0.01039      
145300  0.10703    0.01148    0.02835    0.00138      0.06379      0.01012      0.00178      0.06316      0.01037      
145400  0.10702    0.01148    0.02835    0.00138      0.06379      0.01014      0.00179      0.06316      0.01041      
145500  0.10701    0.01148    0.02834    0.00137      0.06379      0.01015      0.00177      0.06317      0.01042      
145600  0.10701    0.01147    0.02834    0.00138      0.06379      0.01013      0.00178      0.06316      0.01038      
145700  0.10700    0.01147    0.02834    0.00138      0.06379      0.01013      0.00178      0.06317      0.01037      
145800  0.10699    0.01147    0.02833    0.00138      0.06378      0.01015      0.00178      0.06317      0.01041      
145900  0.10699    0.01147    0.02833    0.00138      0.06378      0.01014      0.00179      0.06316      0.01040      
146000  0.10698    0.01146    0.02832    0.00138      0.06379      0.01013      0.00178      0.06317      0.01038      
146100  0.10697    0.01146    0.02832    0.00138      0.06379      0.01013      0.00178      0.06317      0.01037      
146200  0.10697    0.01146    0.02832    0.00138      0.06378      0.01013      0.00178      0.06317      0.01038      
146300  0.10696    0.01145    0.02831    0.00137      0.06379      0.01013      0.00177      0.06318      0.01039      
146400  0.10695    0.01145    0.02831    0.00138      0.06378      0.01014      0.00179      0.06317      0.01038      
146500  0.10695    0.01145    0.02831    0.00138      0.06378      0.01014      0.00178      0.06317      0.01039      
146600  0.10694    0.01144    0.02830    0.00137      0.06378      0.01016      0.00178      0.06317      0.01043      
146700  0.10693    0.01144    0.02830    0.00138      0.06378      0.01014      0.00178      0.06316      0.01039      
146800  0.10692    0.01144    0.02830    0.00138      0.06378      0.01013      0.00179      0.06316      0.01038      
146900  0.10692    0.01144    0.02829    0.00138      0.06378      0.01015      0.00178      0.06317      0.01041      
147000  0.10691    0.01143    0.02829    0.00138      0.06378      0.01014      0.00178      0.06316      0.01042      
147100  0.10690    0.01143    0.02829    0.00138      0.06378      0.01014      0.00178      0.06316      0.01040      
147200  0.10690    0.01143    0.02828    0.00137      0.06378      0.01014      0.00178      0.06316      0.01040      
147300  0.10689    0.01143    0.02828    0.00138      0.06378      0.01014      0.00178      0.06316      0.01040      
147400  0.10689    0.01142    0.02828    0.00138      0.06377      0.01014      0.00179      0.06316      0.01040      
147500  0.10688    0.01142    0.02828    0.00137      0.06378      0.01014      0.00177      0.06317      0.01040      
147600  0.10687    0.01142    0.02827    0.00138      0.06378      0.01014      0.00178      0.06316      0.01039      
147700  0.10687    0.01142    0.02827    0.00138      0.06377      0.01014      0.00179      0.06315      0.01039      
147800  0.10686    0.01141    0.02826    0.00138      0.06378      0.01013      0.00178      0.06315      0.01037      
147900  0.10685    0.01141    0.02826    0.00138      0.06377      0.01015      0.00179      0.06315      0.01041      
148000  0.10685    0.01141    0.02826    0.00138      0.06377      0.01014      0.00179      0.06315      0.01039      
148100  0.10684    0.01141    0.02825    0.00138      0.06377      0.01015      0.00178      0.06315      0.01040      
148200  0.10683    0.01140    0.02825    0.00138      0.06378      0.01014      0.00178      0.06316      0.01038      
148300  0.10683    0.01140    0.02825    0.00138      0.06378      0.01013      0.00178      0.06315      0.01039      
148400  0.10682    0.01140    0.02824    0.00138      0.06377      0.01014      0.00179      0.06315      0.01040      
148500  0.10681    0.01139    0.02824    0.00138      0.06378      0.01015      0.00178      0.06316      0.01040      
148600  0.10681    0.01139    0.02823    0.00137      0.06378      0.01015      0.00177      0.06316      0.01041      
148700  0.10680    0.01139    0.02823    0.00138      0.06378      0.01015      0.00178      0.06315      0.01041      
148800  0.10679    0.01139    0.02823    0.00138      0.06378      0.01013      0.00178      0.06315      0.01036      
148900  0.10679    0.01138    0.02822    0.00137      0.06378      0.01015      0.00177      0.06316      0.01041      
149000  0.10678    0.01138    0.02822    0.00138      0.06377      0.01015      0.00179      0.06315      0.01040      
149100  0.10678    0.01138    0.02822    0.00137      0.06378      0.01014      0.00178      0.06316      0.01038      
149200  0.10677    0.01137    0.02821    0.00138      0.06377      0.01015      0.00178      0.06315      0.01039      
149300  0.10676    0.01137    0.02821    0.00138      0.06377      0.01015      0.00178      0.06315      0.01040      
149400  0.10676    0.01137    0.02821    0.00137      0.06377      0.01017      0.00177      0.06315      0.01044      
149500  0.10675    0.01137    0.02820    0.00137      0.06378      0.01014      0.00178      0.06316      0.01039      
149600  0.10674    0.01136    0.02820    0.00137      0.06378      0.01015      0.00178      0.06315      0.01040      
149700  0.10674    0.01136    0.02820    0.00138      0.06378      0.01014      0.00178      0.06316      0.01039      
149800  0.10673    0.01136    0.02819    0.00137      0.06378      0.01015      0.00177      0.06316      0.01041      
149900  0.10673    0.01135    0.02819    0.00138      0.06378      0.01015      0.00178      0.06315      0.01041      
150000  0.10672    0.01135    0.02819    0.00137      0.06378      0.01014      0.00178      0.06316      0.01039      

---------------------------------------------------------------
Time used for training = 82457.164062 s.
---------------------------------------------------------------


---------------------------------------------------------------
Finished running nep.
---------------------------------------------------------------

