  1.0967267e-03   3.2847526e-04
  5.8464555e-04   3.8853765e-04
 -4.6925578e-01   1.6102524e-04
 -1.0572592e-04   2.1221691e-04
  1.4498634e-02   1.8948397e-04
 -8.4275287e-03   9.7926109e-05
  1.6670652e-02   5.2909865e-05
 -4.5421955e-04   1.5217632e-04
  2.2351840e-01   1.0474557e-04
  1.3272085e-03   4.0275115e-04
 -4.1230765e-04   2.1448274e-04
 -1.3794842e-03   2.4696777e-04
 -2.7797917e-02   8.8685047e-04
 -8.1142981e-04   5.6607585e-04
 -1.2445734e-03   5.0915143e-04
 -8.1437710e-04   3.8769760e-04
  1.0023846e-03   3.4505062e-04
 -8.4905967e-02   3.8727530e-04
  2.4860742e-04   3.8678432e-04
 -3.2262111e-03   2.0010147e-04
  1.5430164e-03   4.7198511e-04
 -2.1096859e-03   3.0443410e-04
 -8.9206398e-03   5.2518334e-04
 -6.6915294e-04   1.9155226e-04
 -1.2414906e-01   2.3843480e-04
 -2.8912441e-03   5.5765221e-04
 -4.7268861e-04   9.7279029e-04
 -7.1284804e-04   2.6820597e-04
 -2.3259330e-03   5.6088867e-04
  7.2772737e-04   1.4451667e-04
 -7.3389336e-04   2.6766848e-04
 -1.0369265e-03   3.3126678e-04
  3.3518968e-03   6.7342946e-04
 -4.4695958e-03   3.5456329e-04
  1.2437439e-04   1.8098725e-04
 -1.7803825e-02   6.2979944e-04
  1.2813669e-04   3.9765186e-04
  3.5866564e-03   5.0454703e-04
 -6.4770010e-04   4.4861090e-04
 -2.4515789e-03   1.1878549e-04
  9.3101431e-04   3.5569447e-04
  1.9514677e-03   9.6342608e-04
 -2.9938470e-03   6.5425271e-04
  5.7849651e-03   4.6540966e-04
 -1.3500659e-01   2.6720745e-04
  6.7967325e-02   1.7954946e-04
 -3.1061189e-02   3.7008846e-05
 -5.1977992e-01   3.8066789e-04
  2.0660670e-02   3.9934466e-04
  5.2565777e-01   1.1933596e-04
 -2.9607362e-01   8.4011459e-05
 -6.9278166e-02   1.4820526e-04
  2.9017186e-02   1.2806902e-04
  3.1564962e-03   9.9961580e-05
  3.3107549e-03   3.2144130e-04
  3.7221098e-03   3.5516344e-04
 -2.9710246e-02   9.0254348e-04
  2.0843095e-04   9.6590410e-04
 -6.7641966e-02   5.4835540e-04
 -2.9979303e-04   3.2769787e-04
  2.7222151e-04   2.5235870e-04
 -1.5164360e-02   1.2880168e-04
  2.1747614e-01   3.2483280e-05
 -7.1471592e-04   2.8807452e-04
 -7.6849561e-04   3.4070786e-04
 -3.5862441e-03   5.8985827e-04
 -9.3029775e-02   3.2679185e-05
  2.0344931e-04   6.2826482e-05
 -8.2179338e-02   2.2629273e-04
  3.1978518e-04   2.9565830e-04
 -1.7645636e-03   4.3730714e-04
 -1.5729223e-03   3.0089906e-04
 -5.3422940e-03   4.9878849e-04
 -2.5450613e-02   1.1721753e-04
  6.1883050e-04   2.2637994e-04
 -7.2776026e-04   8.2145663e-05
  1.6753117e-03   3.0067749e-04
  9.8552788e-04   2.4133235e-04
 -8.3082734e-04   6.3605502e-04
 -1.5701309e-01   1.8539926e-04
 -1.4921232e-03   4.4071447e-04
 -2.7315395e-03   4.7753393e-04
 -4.2890970e-04   1.8340081e-04
 -1.3184568e-03   6.4961001e-04
  3.4586876e-04   8.3667546e-04
  6.9300535e-05   4.5546683e-04
  2.8758650e-03   5.1278202e-04
  5.3895846e-02   2.5277372e-04
  3.2874357e-02   1.6359646e-04
 -1.7120343e-02   2.5609651e-04
  4.6404579e-01   8.1845959e-05
  2.3782799e-02   2.0568130e-04
 -1.1262926e-01   1.5877931e-04
 -6.5809473e-02   5.7017922e-05
 -7.1255928e-01   6.4319109e-05
  2.7523592e-01   4.0202617e-04
 -3.6184198e-01   8.4109073e-05
 -2.5266470e-02   1.6729519e-04
  2.8325222e-04   2.9182553e-04
  1.2292106e-01   3.0157255e-04
  6.5599300e-02   1.6022511e-03
 -2.9570550e-02   1.7080827e-03
 -5.1458442e-04   2.0967115e-04
  2.7267489e-04   3.7114139e-04
  2.7957188e-02   2.7431845e-04
 -1.3123389e-03   1.1605145e-04
  2.3175396e-04   3.6124923e-04
 -2.2606544e-04   4.1214746e-04
  7.4626012e-03   2.2481417e-04
  9.2505544e-02   3.8854592e-04
  1.1241250e-01   3.1384875e-04
 -1.2426616e-02   2.9304140e-04
 -2.8658409e-02   1.8021108e-04
  1.3007737e-03   3.1531468e-04
  2.0099406e-03   3.6023458e-04
  3.7759021e-03   3.7059133e-04
 -1.2414698e-03   1.7487053e-04
 -2.8184611e-01   1.5112900e-04
  6.6494523e-04   2.2120244e-04
  2.6665137e-03   2.9631340e-04
  2.4903665e-04   2.7416236e-04
 -2.4859166e-05   1.1542368e-04
 -2.6035924e-03   6.5196073e-04
  2.4987893e-01   8.4861962e-04
 -1.3051309e-03   2.6059127e-04
  1.9797212e-03   5.2631210e-04
 -2.4762533e-03   2.0549027e-04
 -1.8662210e-04   5.3400261e-04
 -1.2848692e-04   4.9083633e-04
 -1.4098262e-04   7.6695997e-04
 -2.5853561e-04   2.5297131e-04
 -1.5141645e-02   8.9366944e-04
 -1.7518039e-01   7.0411625e-05
 -6.8143338e-01   4.6322955e-05
 -1.7339039e-01   6.4384520e-05
 -3.4121141e-01   2.0726649e-05
  6.6948462e-01   1.7607320e-04
  3.5102060e-03   1.1990076e-04
 -8.7034798e-01   6.2317151e-05
  5.7084601e-02   1.9393547e-04
 -6.4908850e-01   6.7883608e-05
  1.2397227e-01   1.8032744e-04
  1.3611583e-01   5.3046516e-04
  2.4209090e-01   4.1741692e-05
 -3.2085186e-01   5.5452238e-04
  6.0038563e-02   4.9237075e-04
 -2.2690333e-03   1.5334407e-04
  1.8678438e-02   5.9871405e-04
  1.7115562e-01   1.1152709e-04
 -2.3661937e-01   3.5936893e-05
  1.2842955e-01   3.4980639e-04
 -1.2678218e-01   8.8387453e-05
 -1.9351546e-02   9.5128675e-04
 -1.9569997e-01   1.4053778e-04
 -5.2794337e-01   1.1911544e-04
  9.5685497e-02   2.6199390e-04
  1.9561072e-01   3.9569139e-05
  1.8793446e-01   3.5314897e-05
 -3.1642574e-01   2.5871332e-04
 -1.6802056e-01   6.0922455e-04
 -3.7081599e-02   1.7875506e-04
 -2.4486397e-01   7.6093100e-05
 -8.7160515e-03   1.9477480e-04
  1.7534761e-01   4.0785610e-04
  5.3749387e-03   3.6751773e-04
  4.7486345e-03   2.2173944e-04
 -2.6508898e-01   1.1199540e-03
 -4.7259742e-01   3.7560545e-05
 -6.5550208e-02   1.9572827e-04
 -2.4704365e-02   1.7500870e-04
  3.9871591e-03   1.7968938e-04
  9.1228835e-02   6.5397711e-05
  1.6932633e-02   7.3668739e-04
  2.9950340e-03   6.2169338e-04
  5.1618591e-03   4.3356721e-04
  9.1050737e-02   3.3544304e-04
 -4.1621376e-04   4.6438220e-04
 -4.7396115e-04   3.1978972e-04
 -1.2122192e-03   3.6815819e-04
 -2.5987781e-03   8.7726756e-04
  1.7375455e-04   2.2436400e-04
 -2.5391839e-03   6.9566863e-04
  1.3382886e-04   3.6693231e-04
  5.0847826e-04   9.3369238e-04
  3.4735233e-03   4.0524808e-04
  1.0138915e-03   5.4883206e-04
  8.7830320e-04   7.3871022e-04
 -4.1665677e-03   3.6160037e-04
 -6.7875581e-04   4.0177786e-04
 -6.7434227e-04   5.1497133e-04
 -9.2951732e-04   7.9828256e-04
 -1.4559506e-04   6.2121160e-04
 -1.5839407e-03   4.3554421e-04
  1.0877945e-02   2.0119606e-04
  2.8216455e-04   2.0229135e-04
  1.0266860e-03   2.3474760e-04
 -3.3181501e-03   4.9927976e-04
  1.7393325e-03   3.6304496e-04
  1.2638072e-04   4.7946422e-04
 -1.0380277e-03   4.4387399e-04
  2.1931117e-03   8.5811829e-04
  5.2505359e-04   5.5632211e-04
  1.5616075e-03   1.4381304e-04
  1.2797242e-03   5.1932794e-04
 -8.1716297e-04   2.3892343e-04
  2.6547043e-03   5.9187092e-04
 -1.0255876e-04   8.6525141e-04
  5.8862887e-04   3.0365467e-04
  1.9039712e-03   8.1487739e-04
  2.9130492e-03   4.4305259e-04
 -7.8267924e-04   4.9974426e-04
  1.8666770e-04   2.6701920e-04
  1.0831124e-04   2.4094901e-04
  1.5712715e-03   3.8940299e-04
  1.1703875e-03   8.6633620e-05
 -5.7581067e-04   1.9699104e-04
 -1.5450935e-03   6.6543766e-04
  2.2856304e-03   4.4269135e-04
 -3.7120358e-04   4.3279096e-04
  5.4705539e-04   4.3143803e-04
 -3.3146492e-04   1.7222577e-04
  7.1429898e-04   1.9437198e-04
  2.2594944e-04   2.5223178e-04
  1.1726501e-03   4.8256019e-04
 -3.3081984e-04   6.1751850e-04
  1.0270283e-03   4.3279349e-04
 -3.4043781e-04   1.9729476e-04
 -4.0486204e-03   6.9290516e-04
  4.6218922e-03   4.2171380e-04
  1.3854138e-03   2.2174892e-04
 -3.8938890e-03   2.6790358e-04
 -1.0758974e-04   1.0137689e-04
 -2.3300939e-03   2.9165018e-04
  2.0650806e-02   1.0933536e-03
 -1.1081494e-03   3.8845136e-04
 -3.9489814e-03   3.7578735e-04
 -2.8939155e-01   3.3927406e-04
 -1.3660894e-05   3.9561524e-04
 -9.1763586e-03   7.4806367e-04
 -1.2451637e-02   2.6722130e-04
  1.3802452e-03   7.0349226e-04
 -6.2229513e-04   7.9065957e-04
 -4.1701412e-03   5.2234664e-04
 -1.2875813e-03   3.4814249e-04
  1.9026813e-04   4.7994748e-04
 -1.3832902e-03   5.4413098e-04
 -2.6568822e-03   4.6746770e-04
  2.7586299e-05   3.4447480e-04
 -1.5898515e-03   4.6315108e-04
 -6.4236796e-05   5.0577958e-04
  1.6984082e-04   4.2015119e-04
 -1.9538265e-03   3.0612620e-04
 -9.2568557e-04   4.7160694e-04
 -2.8192246e-05   2.3295003e-04
  1.9592913e-03   2.0941216e-04
 -2.3030110e-04   6.0682785e-04
  2.6658142e-04   5.0183077e-04
 -1.1514209e-03   4.8731995e-04
  2.3003379e-03   5.6681683e-04
  4.9889635e-04   8.4976252e-04
  1.4659963e-03   3.4104861e-04
 -1.8177616e-03   5.2101101e-04
  3.1670209e-03   1.4434456e-03
  2.6661370e-04   2.0225671e-04
 -2.1565626e-03   6.9487677e-04
  9.8762405e-04   3.7731091e-04
  2.4538082e-03   3.0450957e-04
 -7.6257880e-04   8.2396681e-04
 -2.6452362e-05   5.7488802e-04
  2.4556334e-03   4.2815809e-04
 -1.2956141e-03   6.3595775e-04
  1.9478108e-03   2.0139314e-04
 -1.9427760e-03   6.4494746e-04
 -1.6426590e-03   5.8061065e-04
 -4.8365073e-05   7.0623419e-04
  9.6673885e-04   5.5947748e-04
 -5.6186161e-04   6.9428101e-04
 -6.4407801e-04   3.7875862e-04
 -1.8852517e-04   4.4614609e-04
  1.1499322e-03   4.0645702e-04
  1.2294655e-03   6.8325072e-04
  3.7703040e-04   6.5827003e-04
  1.5312714e-04   4.4979827e-04
 -4.6554941e-04   4.2513933e-04
  1.5530783e-03   4.5687211e-04
 -1.4682814e-03   5.4571283e-04
  4.1309552e-04   1.0053943e-03
 -5.9294892e-03   7.4270344e-04
  7.9851941e-04   1.8614800e-04
  1.9422238e-04   2.5851192e-04
 -2.6838444e-03   5.8142847e-04
  2.2292810e-03   4.8692463e-04
  5.1066122e-04   7.2880485e-04
 -6.4151565e-04   3.3245672e-04
 -9.5069403e-04   5.8671803e-04
 -1.3155452e-03   3.8036660e-04
  2.6413680e-03   6.6173502e-04
  2.1030954e-03   3.9978317e-04
  1.4583844e-03   3.3191242e-04
  2.2091130e-03   6.5959763e-04
 -9.4599171e-05   5.5862404e-04
  4.9631047e-04   8.0229266e-04
  7.5813965e-04   5.4931088e-04
 -7.8193465e-05   5.6982232e-04
 -2.5177939e-04   4.5681340e-04
 -1.6835523e-03   1.8275429e-04
  3.7377931e-03   8.7167462e-04
 -3.2001495e-04   1.0992234e-03
 -1.8814874e-03   3.8908626e-04
 -2.5529016e-04   1.6059604e-04
  2.0629415e-04   1.5483655e-04
 -1.8652283e-03   4.9759774e-04
 -5.3688032e-03   3.7253113e-04
  3.1124646e-04   2.1220282e-04
 -1.2438045e-01   2.2895563e-04
  8.8864175e-04   5.1498966e-04
 -4.0419273e-02   7.2764684e-05
 -1.0690213e-03   3.1033432e-04
  5.4028130e-04   2.7540047e-04
 -1.4573823e-04   5.5171456e-04
  9.9944661e-04   8.2810828e-04
  1.2602558e-03   1.0883260e-04
 -1.5712521e-04   4.8132380e-04
  8.1066519e-04   5.6593551e-04
 -1.1389117e-03   5.0673296e-04
  9.5764577e-02   1.6598387e-04
 -2.7309414e-03   2.4584413e-04
  1.7698179e-03   3.7941491e-04
  2.1280964e-04   5.8162649e-04
  3.0370736e-03   6.5304694e-04
 -1.9433694e-03   1.8196920e-04
 -3.9327182e-04   4.0246669e-04
 -1.2439869e-03   4.1734648e-04
  1.7586824e-03   6.4211956e-04
 -8.5270248e-04   5.6518312e-04
  1.1187199e-02   1.4354006e-04
 -1.5849490e-03   4.1565887e-04
 -2.7136176e-03   3.6259959e-04
 -2.0081566e-03   5.9172302e-04
 -8.6747878e-04   4.6738176e-04
 -1.8872326e-03   6.9360883e-04
 -8.0074515e-04   3.9164734e-04
 -2.4314264e-03   6.7393429e-04
  1.6540221e-03   6.7249412e-04
 -3.7865280e-03   4.7135915e-04
  9.2041976e-04   3.1051526e-04
 -1.6092679e-03   4.5734525e-04
  6.4472732e-04   5.4654723e-04
  2.0371180e-04   5.0957827e-04
 -2.2518661e-04   7.1981997e-04
 -2.1643449e-04   5.9200142e-04
 -2.0422172e-03   4.0803326e-04
  4.9586743e-05   5.8192457e-04
  3.3715030e-03   3.4183395e-04
  4.3492662e-04   2.6573462e-04
  1.1706741e-05   3.5267085e-04
  1.2180124e-03   5.8538042e-04
 -5.1504474e-02   1.6077181e-05
 -2.2463615e-04   2.7938976e-04
  1.3816610e-04   3.6822603e-04
 -2.0552464e-03   2.1941894e-04
  9.0850772e-05   6.1723345e-04
  3.7364819e-04   3.3216266e-04
  4.4906847e-05   2.0258916e-04
 -1.7723608e-03   7.7694730e-04
  4.9882289e-03   5.1324174e-04
 -1.9116082e-03   3.0241755e-04
 -3.3820831e-04   7.2904944e-04
  8.1873976e-04   4.8576831e-04
 -4.2943034e-04   4.4794386e-04
  5.4943969e-04   1.7191010e-04
  1.2245775e-03   4.1465109e-04
 -8.7561487e-04   5.7262968e-04
 -9.1644004e-04   5.3092703e-04
 -1.5535840e-03   5.1546138e-04
  1.0826653e-03   6.8177987e-04
  7.1213918e-04   3.8074443e-04
 -5.5855871e-03   6.2848796e-04
 -3.0200260e-03   4.4215171e-04
 -4.2540146e-04   3.9666647e-04
 -3.2895671e-03   6.1428198e-04
  1.6169895e-03   7.2077342e-04
  1.8554355e-03   4.1035842e-04
 -1.1401462e-03   4.2174448e-04
 -2.1257205e-03   2.5131745e-04
 -3.3127674e-04   3.9555464e-04
 -2.5426466e-03   3.8696051e-04
  1.4166303e-03   9.7229367e-04
  2.8117991e-03   8.2729140e-04
  1.8099633e-04   4.8105774e-04
 -2.3693671e-03   7.3262095e-04
  5.8752089e-03   1.1116833e-03
  1.0259324e-03   4.2416633e-04
 -7.5897004e-04   4.8599788e-04
  6.8132457e-04   5.7969638e-04
 -1.1512127e-03   2.2075053e-04
  2.7234240e-03   3.9662019e-04
 -1.0223573e-02   1.0975087e-04
  8.8165823e-04   3.8212122e-04
 -4.9919676e-04   2.0403165e-04
 -5.9900805e-03   2.7628406e-04
  1.8166429e-03   3.7337770e-04
 -2.2695726e-03   2.5139272e-04
 -2.0112095e-03   1.1567481e-04
 -2.6238493e-03   2.8392221e-04
 -1.6769783e-03   6.0368888e-04
  2.1199174e-03   4.6659395e-04
  2.2817105e-04   5.1183021e-04
  1.2205030e-03   5.8154837e-04
 -3.7225938e-04   3.6712736e-04
 -6.2130921e-04   4.1366988e-04
 -2.6852265e-04   5.8092328e-04
  3.1351129e-04   5.8150146e-04
 -1.1664775e-03   4.0635877e-04
  1.5582448e-03   3.6044989e-04
 -1.3148605e-03   7.2198780e-04
  2.3631435e-03   2.2761099e-04
  2.5640528e-03   5.0006440e-04
  1.6935575e-03   2.7487063e-04
  2.2210139e-04   4.3244901e-04
 -5.3932302e-04   3.1691257e-04
 -1.8400756e-03   3.1635736e-04
  2.6569489e-04   3.8486533e-04
  8.2690851e-04   4.4131067e-04
 -1.6686433e-03   3.5267937e-04
 -2.8284693e-03   1.6385663e-04
  2.3979133e-03   8.9581961e-05
 -4.9776601e-04   3.9065842e-04
  1.0434786e-04   3.2432858e-04
  1.1007016e-03   4.6102816e-04
 -2.9081539e-03   2.3616618e-04
  3.0021507e-03   9.1084483e-04
  4.0539722e-03   3.1447661e-04
  7.1723822e-05   4.4027972e-04
 -3.2555196e-04   4.9167208e-04
 -2.8717428e-04   1.3020082e-04
  3.3820359e-04   1.0764940e-03
  1.6872504e-03   2.0086711e-04
 -1.6095112e-03   3.0769894e-04
 -6.5585476e-01   7.9629984e-04
 -8.3210447e-04   3.0776361e-04
  1.1820783e-03   6.5255043e-04
  2.8687457e-04   4.0123973e-04
  8.2835380e-04   1.9578969e-04
  3.2227936e-03   3.4063266e-04
  3.6396773e-04   6.0974591e-04
  7.5158093e-04   3.9054389e-04
  7.1086385e-04   2.5320327e-04
  7.1143796e-04   2.0792548e-04
 -3.6727471e-04   4.1433421e-04
 -1.2102952e-03   3.5447272e-04
 -1.6721468e-04   3.8215099e-04
 -8.2061189e-04   4.1573538e-04
  3.9798237e-04   7.6952804e-04
  1.1848008e-03   6.1751867e-04
 -1.0557959e-03   8.6627004e-04
  1.9611607e-03   3.5225437e-04
  3.8515535e-04   5.5353553e-04
  4.9747305e-04   3.2576072e-04
  2.0396106e-04   6.0981477e-04
 -1.2457276e-05   5.9088325e-04
 -2.5186751e-03   1.8680101e-04
 -1.8308350e-05   2.4176053e-04
  2.6198651e-03   6.6450035e-04
 -2.3984062e-03   5.0593732e-04
  1.0728154e-03   4.0230146e-04
 -8.0203620e-04   4.7980703e-04
 -1.0483790e-03   7.2210323e-04
  4.2643072e-03   7.4964185e-04
  1.9533830e-03   6.8429171e-04
 -1.3688587e-03   3.6679095e-04
  1.1753032e-04   5.3290336e-04
 -1.8375575e-04   7.2888995e-04
  7.4386434e-04   2.8389200e-04
  1.4019831e-03   7.2069973e-04
  3.4281495e-04   7.7758793e-04
  7.9329003e-04   3.5393031e-04
 -6.1847141e-04   8.3499210e-04
  8.0735597e-05   7.3549943e-04
 -7.2000618e-04   5.0523807e-04
  2.0436538e-04   5.5345212e-04
  1.9608755e-04   5.6932366e-04
  2.6751478e-04   9.1673021e-04
  2.7666874e-03   5.1705714e-04
  5.1346836e-03   4.1161245e-04
  2.2473403e-03   9.0720452e-04
 -7.9437840e-04   3.8405624e-04
  1.1843275e-03   4.6235760e-04
 -1.6350634e-02   3.7239268e-04
 -2.7871097e-04   8.1760238e-04
 -7.6306955e-04   5.8537337e-04
  1.1930362e+00   1.1940738e-04
  1.9515894e-05   1.9864306e-04
 -6.0559256e-04   6.0850807e-04
 -1.6471611e-03   7.3994743e-04
  3.9360840e-03   4.3491871e-04
 -7.8881322e-04   3.2638106e-04
 -4.9617660e-04   2.4820989e-04
 -3.2886916e-03   4.5615889e-04
 -1.1739527e-03   4.3243531e-04
 -1.0916288e-03   3.2174715e-04
  1.8236594e-04   4.6027717e-04
 -3.7647251e-04   8.4951101e-04
  3.2834201e-03   7.2120008e-04
 -1.9750516e-03   6.2525866e-04
 -1.0555527e-03   6.1649288e-04
  5.9731235e-03   7.6544925e-04
 -2.1567740e-03   4.8136155e-04
  4.7011552e-03   3.2064883e-04
  4.2312403e-04   6.1494403e-04
 -6.7316723e-04   4.0689023e-04
 -7.6370663e-04   7.1632309e-04
 -1.2090091e-03   2.7420779e-04
  1.9065794e-03   4.3783334e-04
 -1.1567615e-03   2.2470539e-04
  1.6069626e-03   3.5075308e-04
  3.4540326e-03   5.9214031e-04
  1.4933019e-05   4.9417501e-04
 -8.4622041e-04   2.9564160e-04
 -7.7602518e-04   3.2171168e-04
 -1.5521992e-03   1.0810966e-03
  1.7400808e-04   6.6672254e-04
  2.2655821e-03   7.3838688e-04
  6.6761352e-04   6.6630210e-04
 -3.2376280e-04   2.8752236e-04
 -5.8631191e-04   4.3149784e-04
 -1.4768750e-03   5.1284762e-04
 -3.5931860e-04   7.4250484e-04
 -8.8009518e-04   6.6394429e-04
  9.5343142e-04   3.3094588e-04
  1.1405788e-01   5.6616889e-05
 -8.0960366e-04   6.0066907e-04
  2.2414450e-03   4.2907006e-04
  5.4464239e-05   2.1800079e-04
 -5.6859952e-01   4.0561656e-04
  4.6541691e-03   2.8314767e-04
 -5.0040942e-02   3.0327257e-04
 -9.7305427e-04   2.3825666e-04
  6.0087663e-05   1.2432112e-04
  1.7713514e-03   3.6155529e-04
  2.3154137e-03   4.4683530e-04
 -5.8835470e-03   4.6623536e-04
  2.5153501e-04   5.8692548e-04
  9.0595050e-04   3.9188602e-04
  2.2618754e-03   3.8096251e-04
 -8.3745242e-04   2.5175774e-04
  6.7983579e-04   4.0372141e-04
  1.1074407e-04   1.6502466e-04
  9.9751365e-04   7.7209994e-04
 -2.7479132e-04   3.2744740e-04
 -3.6097091e-04   5.3152174e-04
 -4.0196250e-03   2.9433522e-04
 -8.1641274e-03   1.9638534e-04
 -4.9327192e-04   1.1309413e-04
  1.1822409e-03   5.2531611e-04
 -1.3775931e-03   5.8930262e-04
 -8.2391407e-04   2.8577619e-04
 -9.2460960e-03   2.4522531e-05
  3.4738908e-04   2.6663998e-04
 -5.9072790e-04   4.0524005e-04
  6.4833374e-03   4.0656392e-04
 -1.4528451e-03   4.6125680e-04
 -7.8183442e-04   8.7206799e-04
 -3.0344221e-04   2.3214761e-04
  1.2126199e-03   3.8054975e-04
  3.5971203e-03   4.1220410e-04
 -1.8550372e-03   4.8704000e-04
  1.5541955e-03   7.5309904e-04
 -1.8612151e-03   1.1075630e-03
  2.8900232e-02   1.1641433e-04
 -2.5813989e-03   9.1895997e-04
 -1.7255524e-04   6.2820321e-04
  4.8415372e-05   6.8181992e-04
 -1.9494824e-04   2.9812468e-04
 -1.5016259e-03   5.1146164e-04
  6.9324381e-04   5.5957260e-04
 -4.5066088e-04   6.9417997e-04
  7.3935778e-04   8.2652963e-04
 -4.0958312e-04   5.9590844e-04
 -3.5286490e-03   6.4956455e-04
 -2.2988699e-03   2.9485440e-04
 -1.1032472e-03   9.2542364e-04
 -7.4373360e-04   6.8293954e-04
  1.5636259e-03   5.0241814e-04
 -1.8180496e-03   6.0741196e-04
 -2.8090966e-03   4.9565465e-04
 -1.5288300e-03   2.6766502e-04
 -2.4657380e-03   7.7445229e-04
 -1.9933927e-04   2.3659694e-04
 -2.6005007e-05   2.5954022e-04
  7.0743845e-05   6.4096309e-04
 -2.8606644e-04   5.1483943e-04
 -6.6146802e-04   8.5896516e-04
  4.2796195e-03   3.8318807e-04
  7.1537559e-04   3.9336653e-04
 -1.0274589e-03   1.5821029e-04
  1.2592432e-03   8.9957716e-04
 -4.8926397e-04   6.6921883e-04
 -1.4576619e-03   5.8505259e-04
 -1.8212212e-03   5.6487910e-04
  4.8491405e-04   1.9860473e-04
 -9.5857430e-04   3.7667248e-04
  1.1689337e-03   4.1902240e-04
  4.2984780e-04   8.8784884e-04
 -1.4763473e-03   2.0519248e-04
  8.0811715e-04   4.6712486e-04
 -2.3807313e-03   3.9909111e-04
 -2.1335691e-04   3.3286039e-04
  9.2440423e-06   3.9331504e-04
  7.8898342e-04   2.4262255e-04
  1.5821662e-04   4.9044564e-04
  2.5787540e-03   7.4443157e-04
  1.4241633e-03   3.4582615e-04
  3.3408047e-03   1.0536526e-03
 -8.0833037e-04   3.9562493e-04
 -1.2514754e-03   4.7892088e-04
  1.3203177e-01   1.6116214e-04
  8.6743665e-01   1.9378640e-05
  5.4549617e-01   1.2531101e-04
 -3.7527446e-02   1.6529342e-04
 -1.7458959e-02   1.1610553e-04
 -7.3911130e-01   8.6806838e-05
  7.2326326e-01   5.5763223e-05
 -7.3715091e-01   4.7506976e-05
  4.4679809e-03   4.9833649e-05
  4.0390599e-04   4.4355163e-04
 -2.3205338e-04   7.0033915e-05
  9.6659407e-02   3.5297440e-04
  1.2481751e-01   1.9207054e-04
 -3.6351952e-01   5.0093152e-04
  1.5000651e-02   1.0535831e-03
 -7.8808237e-03   1.2074038e-03
 -2.5183317e-01   2.0742411e-04
  1.4391099e-02   2.0476330e-04
  2.4062830e-03   2.1072716e-04
  8.2042255e-02   3.1863368e-04
  2.2504618e-02   2.8691697e-04
  5.4273027e-01   1.8005660e-04
  4.2954037e-01   3.7536480e-05
  3.2878688e-01   2.5374655e-04
 -6.3997823e-01   2.0344228e-04
  3.4163354e-03   2.3323747e-04
 -6.9860093e-02   3.1372465e-04
  3.2564440e-01   2.1377875e-04
  2.0603900e+00   1.7449570e-04
  4.4660923e-01   7.3205920e-05
 -2.5431065e-02   3.7819886e-04
 -9.3764573e-04   3.0738107e-04
 -1.5444908e-04   3.7891691e-04
  5.4092926e-04   3.3321002e-04
  2.5343653e-03   1.5708631e-04
  5.3297204e-01   4.7421586e-04
 -2.4639554e-02   6.5703149e-04
 -3.8667961e-03   1.2154280e-03
  3.1708726e-03   4.8353671e-04
 -1.9438876e-03   5.8186572e-04
  2.6879215e-04   4.2511895e-04
 -4.1291178e-03   4.1379905e-04
 -1.4953618e-04   4.1647328e-04
 -6.5962214e-04   2.6869957e-04
 -1.1639476e-01   3.1459113e-04
 -7.7549380e-01   1.2243814e-04
 -2.4670443e-01   1.5482923e-04
 -1.5298945e-01   5.6292227e-04
 -3.3902827e-01   3.3810447e-04
 -2.3723917e-01   3.1470790e-04
  3.7899107e-02   2.5117575e-04
 -3.0256945e-03   3.5489284e-04
 -1.9980402e-01   2.0861167e-04
 -3.1800472e-04   3.8561260e-04
 -4.2233791e-02   9.1831415e-04
  7.4422203e-02   3.7931497e-04
  1.1830576e-03   8.3425496e-04
  8.3697876e-03   4.8581237e-04
 -1.0832706e-03   7.1477931e-04
 -1.2613451e-01   2.5468094e-03
  1.0431110e-01   7.0846750e-04
  4.2821445e-02   1.5126115e-04
 -1.1785070e-02   3.6821116e-04
 -4.7099862e-02   8.9277158e-04
  1.8348233e-03   3.3339611e-04
  2.7874608e-02   4.4793889e-04
  1.0027159e-03   2.4899092e-04
  5.2816058e-03   3.3428823e-04
 -1.0621595e-01   2.4223002e-04
  1.8368489e-03   4.3857552e-04
 -1.9843006e-01   4.9033994e-04
  7.9848093e-04   4.2678212e-04
  1.4206859e-03   2.2254341e-04
 -1.7942458e-02   1.3046198e-04
 -5.0484639e-04   4.8677318e-04
  4.5356718e-03   5.4739969e-04
 -3.1569491e-03   4.2477439e-04
 -7.9064473e-04   4.1871500e-04
  5.8836541e-03   3.1458106e-04
 -5.0464217e-03   2.4704641e-04
 -5.9952599e-04   4.3646095e-04
 -4.1063833e-03   8.6050195e-04
  3.4116278e-04   4.3402004e-04
 -2.7440763e-03   3.9068417e-04
  6.0425978e-03   1.3292370e-04
  6.3579944e-05   3.4794662e-04
 -1.6639769e-03   5.6768447e-04
  6.9222925e-04   6.6647795e-04
  4.0107546e-03   7.7672984e-04
  6.2247884e-02   4.7987115e-04
 -7.3459279e-04   2.8668501e-04
  1.7040309e-02   5.2487123e-04
  1.9414377e-03   1.9581568e-04
 -2.8663003e-01   1.0361950e-04
  7.9400885e-01   6.3498475e-05
  1.1982743e-02   5.6147319e-04
 -5.9361584e-02   1.5660918e-04
  5.3322996e-04   6.0560764e-04
 -6.3628412e-04   2.9581806e-04
  2.8584306e-03   4.3915794e-04
  9.3452085e-04   2.5959182e-04
 -2.2030822e-03   2.7648022e-04
 -2.0296120e-03   2.1531235e-04
  9.1207330e-04   6.4338261e-04
 -9.9032023e-04   4.8167998e-04
 -5.9506821e-04   2.1469590e-04
 -2.9260956e-03   4.2004575e-04
 -1.5062186e-03   4.9803132e-04
 -4.3280330e-04   5.6258251e-04
  4.0072482e-03   4.0153734e-04
  3.7492195e-03   5.1457988e-04
  1.3253331e-04   1.4661886e-04
 -1.9321781e-02   7.2762539e-04
 -5.6887837e-03   4.0706914e-04
  2.0145150e-03   3.3649689e-04
  1.4694066e-03   6.9144502e-04
  2.7729780e-04   4.6409090e-04
 -2.0041398e-03   6.5206514e-05
 -5.3931498e-03   4.2710608e-04
 -1.2929415e-04   3.5248551e-04
  2.1978056e-05   4.9697235e-04
 -1.8762678e-03   9.3032140e-04
 -1.2794454e-03   3.8965165e-05
  2.4131259e-03   2.1863541e-04
  2.0445425e-04   3.1033423e-04
  1.0228993e-03   4.3533230e-04
  4.8199089e-04   5.5689859e-04
 -9.7815366e-04   5.9693138e-04
  1.0416438e-03   7.2237244e-04
 -6.0687278e-04   1.5773650e-04
  4.3355664e-03   1.1316664e-04
 -5.7524345e-03   6.5604073e-04
  2.2280543e+00   8.2440791e-05
  1.1359283e+00   7.7155193e-05
  1.7498167e+00   4.7650836e-05
  1.7990789e+00   1.3969268e-04
  9.2330679e-02   3.0594878e-05
 -7.1891457e-01   8.9420289e-05
  5.4548824e-01   2.4973155e-05
 -2.0658164e+00   1.6304626e-04
  1.0553401e+00   5.4624419e-05
  5.7862914e-01   7.3483476e-04
 -5.8392704e-01   8.8063697e-04
  1.2474566e+00   6.8558281e-04
 -9.4721414e-04   4.4240089e-04
  8.2814455e-04   5.7211838e-04
 -8.3657563e-02   1.2497904e-03
 -1.1735842e+00   1.2343067e-03
  2.0090431e-01   7.4769137e-05
  2.0231044e+00   3.5016582e-04
 -4.2545658e-01   9.4819680e-04
 -2.9433939e-01   3.0915387e-04
 -8.9463696e-04   3.3196664e-04
  4.7048467e-01   7.1395356e-05
  3.2799473e-01   2.6913444e-04
  8.4483167e-03   1.1358309e-04
  8.9402032e-01   2.1601793e-04
  4.3310219e-04   4.3758372e-04
 -1.3889918e-03   1.0069863e-04
  5.6981756e-03   2.6407381e-04
  1.1303402e-02   3.3765193e-04
 -1.2992656e+00   1.1890510e-04
 -4.2482242e-02   1.7491251e-04
  3.7876716e-01   9.5649232e-04
  4.1943201e-01   3.8809485e-05
  9.7816752e-04   4.8876915e-04
  8.0235972e-04   4.2920336e-04
 -5.6751654e-05   9.2621986e-04
  1.3936450e-01   5.8407773e-04
 -3.9459705e-01   1.4652341e-03
 -7.1585824e-04   2.3161265e-04
 -1.2466868e-03   1.1753490e-03
  1.3764726e-04   4.6716511e-04
 -1.0853474e-03   3.2865343e-04
  2.4490366e-03   6.9453107e-04
 -2.8030674e-03   4.1869571e-04
 -1.7828952e-01   7.0106333e-05
  2.7215081e-01   6.1436665e-05
 -3.8384691e-02   6.3810716e-05
  7.1837358e-02   4.2927521e-05
 -5.0064814e-01   4.8912814e-05
  8.7356195e-04   5.0847804e-05
 -5.7027549e-01   4.0923187e-05
 -3.5423443e-01   5.3584849e-05
 -1.8775380e-01   1.0011402e-04
  3.0485360e-02   2.0247426e-04
 -2.9742134e-01   3.6195121e-05
 -1.5667368e-01   7.5475771e-05
 -7.4327931e-02   1.7474979e-04
  8.8091701e-02   5.3662830e-04
 -2.6456237e-01   5.2878965e-04
 -1.3875030e-04   2.4446493e-04
  1.0655954e-01   6.5008251e-05
  1.9704932e-02   6.0509086e-05
 -2.3912003e-02   1.2196165e-04
 -7.4455760e-02   4.2293148e-04
 -8.9585101e-03   5.2524050e-04
  2.5262946e-02   1.6097819e-04
  7.1982905e-02   1.6194888e-04
 -1.6896555e-01   1.3275811e-04
 -2.1921177e-01   4.8996269e-05
 -1.1439844e-02   3.2010739e-04
 -3.3686586e-02   3.8516917e-04
 -3.0150121e-01   1.1365871e-04
 -2.2272852e-01   2.7549689e-04
  2.3093720e-01   3.6909321e-05
  1.4936306e-01   1.7434751e-04
  1.4294550e-01   1.5558921e-04
  2.0324693e-03   5.4250093e-05
  2.3754725e-02   2.2436425e-04
 -8.6492253e-03   3.5854650e-04
 -6.8013430e-01   4.1085051e-04
 -3.7694115e-02   3.8320388e-04
 -4.2402558e-04   4.0720485e-04
  5.9608808e-03   3.7068586e-04
 -7.3888348e-03   1.0837174e-03
  5.4073408e-02   1.2751098e-03
  5.4400240e-05   6.5713568e-04
  2.7107417e-03   5.2298029e-04
  6.5451391e-02   3.4379613e-04
 -1.6506907e-03   6.4361980e-04
  2.4525311e-03   5.6068337e-04
  5.5322428e-03   1.0900366e-03
 -1.0722700e-03   3.3580672e-04
 -2.7270542e-04   2.4266369e-04
 -1.6079959e-03   5.5518304e-04
  1.9168887e-04   3.7442608e-04
 -4.0246258e-03   3.3724681e-04
 -3.8620415e-03   3.3651647e-04
  9.4984233e-04   2.2773807e-04
  6.1564631e-04   8.0685166e-04
 -1.1999338e-03   2.0950501e-04
 -1.6782333e-03   5.9316290e-04
 -2.4392707e-03   1.8845120e-04
 -9.7936031e-04   4.6648236e-04
 -1.0947115e-03   3.4513380e-04
 -1.9316099e-03   9.6691761e-04
 -2.6174667e-03   1.6108097e-04
  7.4846967e-04   2.5806128e-04
  7.4077124e-04   6.5382040e-04
  2.8422768e-03   3.6820080e-04
  2.1688493e-03   5.9781288e-04
  4.0164188e-04   1.2201834e-03
  2.3890815e-04   3.9674752e-04
 -1.6591011e-03   3.4421758e-04
  3.4682013e-04   3.2136939e-04
 -4.3984693e-03   5.4159987e-04
  5.8488925e-03   2.6983875e-04
  2.6357968e-03   5.3542998e-04
 -2.0415004e-04   4.1653475e-04
  1.0243994e-03   3.0521327e-04
  2.3426999e-04   5.1752571e-04
 -3.3735300e-03   3.1066776e-04
 -2.9504779e-03   4.9654680e-04
  2.3441060e-04   7.8266597e-04
  1.8613607e-03   4.5432619e-04
 -1.9702369e-03   4.5601369e-04
  1.4317131e-03   4.5053256e-04
 -2.0393629e-03   5.3226395e-04
  1.3366495e-03   5.2137498e-04
  2.5653862e-05   5.3348776e-04
  3.5953501e-03   3.8358761e-04
 -2.9949662e-03   2.1927174e-04
 -1.8389607e-03   5.5946276e-04
 -6.2943279e-04   2.6643326e-04
 -2.4893444e-03   4.0542742e-04
  2.6050413e-03   1.6092237e-04
 -1.8838837e-03   9.3207147e-04
  4.3230136e-03   4.4071508e-04
  3.6821826e-04   5.5954646e-04
  2.1755528e-03   3.6203369e-04
 -1.9413274e-03   4.5805762e-04
  1.3172029e-03   6.3639297e-04
  1.8548656e-03   5.4157252e-04
 -1.2934352e-03   4.0099450e-04
 -1.8048907e-03   4.2329752e-04
  4.0960191e-03   5.7477131e-04
 -5.1589485e-04   7.9636544e-04
 -6.6628243e-04   3.0376852e-04
 -1.1121816e-04   6.7986723e-04
 -4.7088380e-04   4.8746259e-04
 -5.9629221e-02   1.4447322e-04
 -1.1121146e-04   5.2217464e-04
 -3.3818528e-03   5.4509845e-04
 -1.3420127e-03   6.7840487e-04
 -2.3124088e-04   4.4900144e-04
 -4.4141960e-04   2.0252987e-04
 -2.8806305e-03   4.3267378e-04
 -1.1810191e-03   4.2066822e-04
  4.7394849e-04   2.3355366e-04
  5.8634316e-05   4.8719838e-04
  2.3584047e-04   6.9929456e-04
  1.4299995e-03   6.5821561e-04
  2.4382432e-03   2.6054520e-04
 -2.2343167e-03   2.9003870e-04
 -2.5728895e-04   5.7950802e-04
  1.2282029e-03   5.6523283e-04
  6.6230041e-03   4.5478862e-04
  2.0615384e-03   2.6900650e-04
 -1.2209906e-03   8.5163210e-04
  1.7438971e-03   3.3104621e-04
  1.6373416e-03   1.8314304e-04
  2.0341435e-04   3.4829308e-04
  2.1957627e-03   6.9238630e-04
 -4.9927499e-04   7.9012761e-04
  7.8837579e-04   4.3101108e-04
 -1.2030560e-03   8.1798842e-04
  1.4906450e-03   7.2889449e-04
  1.1185558e-01   1.0998746e-04
  9.0500354e-05   1.4698219e-04
 -1.8761721e-01   1.9168010e-04
  5.7609525e-04   3.8115928e-04
 -2.0722184e-02   1.9951518e-04
  7.5935461e-02   4.3812525e-04
 -9.2417881e-02   2.3326716e-04
 -2.5938617e-03   1.7268059e-04
 -1.9406772e-01   3.8526300e-04
 -4.6413178e-03   3.6674854e-04
  1.2162069e-03   2.8160456e-04
 -4.8609037e-04   1.9561304e-04
  2.1462147e-03   2.9042107e-04