 -3.4537979e-03   2.6222609e-03
 -8.6468412e-03   2.1768799e-04
 -2.3725044e-02   3.2593179e-04
 -2.3306467e-01   5.9709109e-05
  3.6740329e-03   1.0980696e-03
  6.1611040e-04   1.5595389e-03
 -4.3784622e-03   1.2524888e-03
  2.9260188e-03   1.1654787e-03
 -2.8327988e-03   1.1705559e-03
  6.6213892e-04   7.8358629e-04
 -2.4521251e-03   9.5587544e-04
  7.8959862e-04   9.7686390e-04
  1.0710476e-02   2.2045560e-03
  8.1996620e-03   2.3213406e-03
  1.0605601e-03   1.4999959e-03
 -3.0954930e-03   9.6691673e-04
  3.7587926e-01   1.1814337e-03
 -1.8628384e-04   1.7227174e-03
 -9.3442025e-03   9.3790120e-04
  1.4712340e-03   1.1635144e-03
  1.7635947e-02   9.3362271e-04
  1.2341936e-02   9.3642279e-04
 -3.6809109e-03   1.4309637e-03
  2.8233742e-03   1.7320785e-03
 -2.1948135e-03   1.0378599e-03
 -2.7319585e-04   1.6390973e-03
  7.4011190e-03   1.1435144e-03
 -1.4575570e-02   1.7801010e-03
  9.2423316e-03   5.8496115e-04
  8.6923959e-03   1.8222565e-03
 -1.3235820e-03   1.5710666e-03
 -1.0144233e-02   8.0765522e-04
 -2.4315363e-03   2.8130577e-03
 -5.9978869e-03   2.1200993e-03
  1.1073143e-02   1.4160422e-03
 -1.5530898e-02   2.5250597e-03
  2.1121200e-02   2.8791136e-04
 -1.1396366e-03   4.7965493e-04
  3.9947019e-03   2.1355918e-03
 -2.2956696e-03   9.2561898e-04
 -2.6015919e-02   1.5371770e-03
 -6.6618770e-03   3.5305182e-04
  8.3208847e-04   7.0116750e-04
 -3.0579946e-03   1.8714484e-03
 -1.2041309e-02   9.5980457e-04
  4.3615378e-03   3.2022657e-04
  6.2349829e-04   7.3754194e-04
 -9.8188765e-02   2.3142243e-04
 -5.6632410e-04   8.1462716e-04
  1.2751308e-01   4.8304835e-04
  3.2628492e-01   3.8464792e-04
 -1.9159270e-02   7.4796274e-04
 -1.0041734e-02   8.8192627e-04
  1.0990935e-02   2.0261258e-03
 -1.2268363e-02   1.0663266e-03
  5.5547938e-04   9.2441781e-04
  3.0767466e-03   1.2996552e-03
  4.0685234e-05   9.5486996e-04
  1.7517884e-01   2.2159657e-04
 -9.0341130e-04   8.5329404e-04
 -1.9624080e-03   7.8995217e-04
  4.4555161e-03   8.5285649e-04
 -2.9762241e-03   7.8833429e-04
 -1.6824080e-04   1.3190390e-03
  2.1381937e-01   1.9153830e-04
  3.7061654e-03   1.1901462e-03
 -1.0110731e-02   1.3006184e-03
 -3.2530680e-02   8.1015105e-04
  2.8851661e-03   6.9322094e-04
  4.1223224e-03   1.8349204e-03
  8.8741137e-03   1.8654867e-03
 -6.4805750e-04   1.1954216e-03
 -7.5015496e-03   7.9521502e-04
  7.4333628e-03   6.8207341e-04
 -4.8997942e-03   2.4408847e-03
  3.2397325e-03   1.7986726e-03
  1.9576463e-03   1.1740543e-03
  2.0225961e-03   1.2202872e-03
  1.4020654e-02   7.8936806e-04
  1.4915336e-03   1.0312704e-03
 -3.7452983e-04   2.3999112e-03
  6.1684879e-03   1.4693657e-03
 -4.7016963e-03   2.9142522e-03
  3.6384910e-03   1.0568082e-03
 -8.2074711e-03   6.8304088e-04
  5.7034060e-02   2.0594539e-03
  1.2319659e-02   1.3727734e-03
  1.0269985e-02   1.5429399e-03
  7.9665724e-03   1.6904203e-03
  6.7041552e-04   2.6317139e-04
  1.5765998e-03   1.2928350e-03
  3.5312336e-02   5.7795900e-04
 -2.7877351e-03   8.7856175e-04
 -1.2307474e-03   9.6081285e-04
 -2.2229424e-02   2.8413799e-04
  1.1680446e-03   1.1357506e-03
 -2.9513272e-03   1.4245065e-03
  1.2447809e-02   2.9357222e-03
  7.4555902e-03   1.3461182e-03
 -4.9826031e-04   2.2096257e-03
 -8.5820267e-03   1.7091795e-03
  3.2192534e-03   1.7046147e-03
 -1.7980747e-03   1.1455485e-03
  7.7634840e-03   1.2412827e-03
  2.4119224e-03   9.8896958e-04
  1.4697528e-03   1.2931615e-03
 -5.8234064e-03   1.9108905e-03
  5.5047311e-04   7.1376865e-04
  7.6588280e-03   2.6269362e-03
 -1.6560283e-02   7.6796149e-04
 -4.9255202e-03   4.4721903e-04
 -7.5691300e-03   8.1018591e-04
  9.5684314e-03   1.0983173e-03
  6.4281449e-03   1.4383282e-03
 -6.7316955e-03   1.3054804e-03
  3.4745529e-03   8.8114472e-04
 -4.6231509e-03   9.2012977e-04
 -5.8378670e-03   1.8083149e-03
  2.1104498e-03   1.5862080e-03
 -3.9300607e-03   1.6123529e-03
  1.5189686e-03   4.2598398e-04
 -2.0118900e-04   1.5470614e-03
 -1.3198445e-02   2.4217197e-03
 -6.3257728e-04   9.2786539e-04
 -6.9716666e-04   9.6769829e-04
 -1.0224679e-02   9.7486872e-04
 -4.5862021e-03   2.1086647e-03
  4.2853170e-04   2.4322087e-03
 -8.1010638e-03   9.2265703e-04
  1.4937328e-02   2.8050155e-04
 -1.5577281e-02   1.0725429e-03
 -1.4380649e-02   2.9501850e-03
 -2.2300167e-03   2.9526633e-04
  9.0893656e-01   3.3853611e-04
  7.8823352e-03   1.1466597e-03
  4.3017846e-01   1.9429668e-05
  2.4978559e-02   1.6638312e-03
  5.0286320e-03   1.8360701e-03
 -1.3980316e-01   4.2621384e-04
  1.9683305e-03   4.3363622e-04
 -1.5764157e-03   1.3417249e-03
 -1.2186461e-03   1.7802462e-03
  2.2145566e-03   6.7074457e-04
 -8.9730643e-04   9.5124356e-04
  1.0904776e-03   9.5477601e-04
  2.1989043e-03   9.2685118e-04
  9.5898947e-03   1.5217579e-03
  3.3875862e-03   1.0311904e-03
 -6.6223131e-03   1.2975873e-03
 -5.1131682e-03   2.4155070e-04
 -6.2409695e-02   4.0062005e-04
 -1.3176653e-02   2.0470574e-04
 -8.8317972e-03   2.5265762e-03
 -1.3421935e-03   1.0350490e-03
  3.8704628e-03   2.4195625e-03
  2.7541751e-03   1.2099012e-03
 -2.0072260e-03   1.1609453e-03
  2.8962553e-03   2.2598566e-03
 -1.3851423e-02   1.2489333e-03
 -5.5099989e-04   9.9299359e-04
 -1.3486295e-02   8.3182438e-04
  2.6133232e-04   2.2361067e-03
 -2.7910841e-04   1.0127481e-03
 -5.8314845e-04   9.7743352e-04
  1.4897286e-03   1.2451183e-03
  5.2820491e-03   8.6157233e-04
  7.3639024e-03   1.8808614e-03
 -4.5786933e-03   5.7509687e-04
  7.2035119e-03   2.9468315e-03
 -2.7734998e-03   1.9050068e-03
 -6.4591472e-03   6.5212633e-04
  1.6138291e-02   1.1280467e-03
 -2.2047291e-04   1.4201531e-03
  7.9399809e-02   2.3702304e-04
  2.2329981e-03   5.7475833e-04
 -7.7323848e-03   1.9047259e-03
  2.5204918e-03   7.1038230e-04
 -1.5341552e+00   2.6714775e-05
  4.6175993e-03   2.3526053e-03
  4.9075293e-03   6.8892102e-04
 -1.1269278e-03   1.3541820e-03
  1.1382517e-03   8.0323376e-04
 -5.8232006e-03   1.2659788e-03
  1.1788364e-01   4.6451701e-04
  1.8215170e-03   1.4608934e-03
 -7.0478930e-04   2.1939159e-03
 -7.1624210e-03   1.3782701e-03
  4.6559726e-03   1.3472246e-03
 -3.6019566e-03   1.6863170e-03
 -2.5187514e-03   8.3034672e-04
 -1.2248516e-02   7.6842547e-04
 -4.1282545e-03   1.5770486e-03
 -6.5673108e-04   1.8469030e-03
  1.1048667e-03   1.8559486e-03
 -5.8469009e-03   1.5331795e-03
 -1.0695006e-03   1.4989902e-03
 -2.9658850e-03   6.0969300e-04
  9.4830468e-03   1.5272718e-03
 -1.4046768e-03   5.4469670e-04
 -7.4509205e-03   1.5527400e-03
 -2.4782138e-02   1.0104885e-03
  3.9663231e-03   1.1584569e-03
  1.2540517e-02   2.0059745e-03
 -4.7563836e-03   1.1057465e-03
 -4.8968564e-03   1.1681707e-03
 -1.4721728e-03   2.2970634e-03
 -1.3195589e-04   1.3614590e-03
 -1.3519384e-02   1.4870012e-03
 -8.2565611e-03   6.0330168e-04
 -1.1981641e-03   1.8398957e-03
 -6.4106225e-03   1.9619719e-03
  1.5113086e-02   1.7144900e-03
 -5.7865377e-03   1.5298300e-03
  3.5849805e-03   7.9341186e-04
 -7.3991953e-03   1.1696185e-03
 -1.2269830e-03   2.0664581e-03
  1.6899317e-03   1.6020300e-03
  3.8460572e-03   1.8481764e-03
  4.3170834e-03   7.5124123e-04
  2.2227665e-02   1.0937375e-03
 -9.0836674e-02   8.0592108e-05
  9.6996024e-02   2.1446870e-04
 -5.2483114e-03   1.5379766e-04
 -2.9424757e-01   5.2168459e-04
 -1.1509441e-02   5.9685245e-04
 -1.1183039e-02   5.9553335e-04
  1.4757973e-02   2.8043604e-04
  1.0742508e-01   7.8048900e-04
 -1.9423299e-01   4.8211584e-04
  1.4661065e-03   2.3257774e-03
 -2.4107597e-03   1.9417760e-03
 -4.1359714e-03   1.1209472e-03
  1.0541278e-03   9.3517452e-04
  2.4296208e-03   9.3219522e-04
  1.7352678e-02   7.5117085e-04
 -2.6626189e-03   1.6721939e-03
  3.8718153e-03   3.1341243e-04
  2.2105109e-03   1.7111121e-03
 -2.2118940e-04   6.5638765e-04
 -1.1734500e-03   1.9312978e-03
  1.2172703e-03   1.3270728e-04
  1.8916043e-02   5.3802086e-04
  1.0139218e-03   1.3146271e-03
  4.4579893e-02   3.6317448e-04
 -2.4714036e-02   6.1484304e-04
  1.0969842e-02   1.4785816e-03
 -7.7961147e-04   4.8680493e-04
 -9.3376171e-04   1.6417768e-03
  2.8759453e-02   7.8048691e-04
  2.0499560e-01   7.8214979e-04
 -2.0988348e-03   1.2787535e-03
  6.1246939e-04   1.9150606e-03
 -8.2381172e-03   1.6255958e-03
  1.8763081e-03   2.2558814e-03
  2.3032496e-02   6.2268856e-04
 -6.2978821e-04   1.0496228e-03
 -1.1959038e-03   1.2342538e-03
  3.4089230e-03   7.5029104e-04
  1.2963468e-02   2.1458738e-03
  1.5294376e-03   1.8993027e-03
 -5.9676017e-03   1.9014439e-03
 -2.3604375e-03   1.8058440e-03
  1.8654967e-04   1.3257235e-03
  1.9763154e-03   1.2685953e-03
  2.1507060e-03   2.4895670e-04
  1.0417508e+00   3.0517342e-04
 -1.6397350e-02   1.3182065e-03
 -8.7557081e-03   4.4242971e-04
  6.8457699e-03   9.7745296e-04
 -1.4876355e-02   9.0593041e-04
 -1.6877025e-02   4.8962835e-04
 -1.3612081e-02   2.4108798e-03
 -4.5521427e-03   2.3993114e-03
  9.8234843e-03   6.6997687e-04
  6.3063195e-03   1.5146077e-03
 -8.2681263e-03   2.2549541e-03
  6.1011491e-03   2.1237275e-03
 -1.7906301e-02   1.1232386e-03
 -1.0429165e-02   3.6587568e-03
  7.2409300e-04   1.8536923e-03
 -1.7970916e-03   6.8261247e-04
 -2.7348951e-03   1.8224940e-03
 -4.5978897e-03   2.2940696e-03
 -6.6889275e-04   7.5858296e-04
  2.6376033e-03   1.1729338e-03
  8.5682282e-03   2.2624345e-03
  3.8816204e-04   1.7783750e-03
 -4.1448786e-03   1.8911881e-03
  9.3226805e-03   1.3789488e-03
 -2.0226403e-03   5.6568964e-04
  1.2612727e-04   2.0102491e-03
  3.0287658e-03   1.2225071e-03
  1.1433804e-01   1.1724351e-04
 -3.5747332e-03   1.1233991e-03
 -2.5116554e-03   2.2798579e-03
  8.2342234e-03   2.6029081e-03
  6.7612086e-03   9.0356276e-04
 -1.0269799e-02   6.2935421e-04
 -1.2886970e-02   2.9810269e-03
 -4.6062688e-03   1.1227042e-03
  5.8996323e-03   2.0365689e-03
 -4.0073767e-03   2.1210900e-03
 -1.2513341e-03   1.4174799e-03
  6.6437512e-03   1.7299724e-03
  4.4286139e-03   2.3825902e-03
  2.3338832e-02   1.6217086e-03
 -1.0883671e-02   2.3149385e-03
 -5.7168738e-03   1.9326272e-03
  5.1506548e-03   1.8018282e-03
  1.8487939e-01   1.4083793e-04
  2.6641801e-02   1.5449090e-03
 -2.4183916e-03   1.0621684e-03
  3.8528446e-02   5.4325722e-04
 -4.1378038e-03   9.3097804e-04
 -5.0095308e-01   3.8622259e-04
  5.8989394e-03   1.1965809e-03
 -1.0890337e-02   1.2154159e-03
 -8.1254411e-03   6.1391562e-04
  3.1175017e-03   1.3167911e-03
  2.3191988e-03   1.3473317e-03
  4.5600235e-03   2.0232736e-03
  4.5225061e-03   7.3336897e-04
  4.9985810e-03   1.2771117e-03
 -1.5310872e-02   1.8413874e-03
  1.3772167e-01   1.2003076e-03
 -1.6125770e-01   3.6171498e-04
  1.2198037e-02   6.1446941e-04
 -2.0455546e-03   2.0372689e-04
 -2.9260081e-03   1.0152522e-03
 -4.1003800e-03   9.4573112e-04
  1.6176933e-02   1.1269188e-03
 -5.4863775e-03   1.4467901e-03
  1.6628904e-02   3.3589819e-04
 -9.7714700e-03   5.3622300e-04
 -3.2660209e-03   3.0288796e-03
 -3.4626438e-03   1.3262591e-03
 -3.1924227e-03   4.9730355e-04
  1.6480215e-03   8.3672698e-04
  1.2185531e-02   2.6903558e-04
  3.7644216e-01   4.7024721e-04
 -7.5374651e-03   1.5233397e-03
 -1.3849186e-02   2.0345650e-03
  3.5994912e-03   7.2200596e-04
  3.4737468e-03   1.3064841e-03
  8.1860889e-03   2.3758152e-04
 -6.1870721e-04   6.6609011e-04
 -3.9091203e-03   1.7906015e-03
  5.9093712e-03   1.4122429e-03
  1.8988124e-03   7.5070333e-04
 -2.8387899e-02   1.3486788e-03
 -1.1174452e-02   1.0779494e-03
 -7.5601269e-03   2.9200050e-03
  2.6715217e-02   1.5972377e-03
  9.5143372e-01   4.3828189e-04
 -6.6912035e-03   5.8034767e-04
  1.3773119e-02   1.9204923e-03
  5.5885839e-04   4.9753266e-04
 -7.4271350e-03   1.2161334e-03
 -1.5222861e-02   6.5703038e-04
  2.9846797e-02   1.8805919e-04
  1.2544170e-03   1.0417302e-03
  9.1305776e-03   1.6540922e-03
 -5.0991622e-04   1.5425382e-03
  3.9633024e-03   5.3596089e-04
  1.1306503e-03   9.8189933e-04
  1.0845186e-03   1.8097186e-03
  8.4156767e-03   1.9854677e-04
 -1.7104018e-04   3.0525057e-03
  5.0902349e-04   5.2305678e-04
  3.0417214e-03   1.2504907e-03
 -9.0448381e-03   1.6255887e-03
 -1.9986191e+00   1.5073768e-03
  1.7793043e-02   4.9170491e-04
  1.2806227e-02   2.8947566e-03
  1.4037432e-03   2.2098776e-03
  3.3944070e-03   7.0170755e-04
 -4.3177088e-03   1.3181689e-03
 -3.9415527e-03   1.7284399e-03
  1.8706416e-03   6.0197880e-04
 -7.8319421e-04   1.5647371e-03
 -1.9945377e-03   1.1017148e-03
 -3.6689250e-03   2.9234574e-03
 -1.8855873e-03   1.4504542e-03
  2.0229113e-03   2.6423468e-03
 -3.8775739e-03   1.2131328e-03
 -1.1717081e-03   5.9309276e-04
  4.4689193e-02   1.5188642e-04
 -2.5022479e-03   1.7477465e-03
  6.4541930e-03   1.2298471e-03
  8.4108822e-03   3.1410130e-03
 -1.2340139e-02   1.2775732e-03
  1.0492653e-03   1.6397138e-03
 -8.1632826e-03   2.9230672e-03
 -1.8390603e-01   8.2737235e-05
 -2.2400711e-03   9.8890881e-04
  2.7989533e-03   1.1211158e-03
 -7.1748942e-01   1.9444338e-04
  5.4632771e-01   2.6224527e-05
 -1.6281852e-02   1.1032313e-04
 -4.2580166e-01   8.3597151e-05
 -1.6228835e-01   2.9705194e-04
  2.5994027e-01   1.2472615e-04
 -6.3513583e-01   6.4856555e-05
  5.2182913e-01   1.8770619e-04
 -5.3206152e-01   2.1575397e-05
 -7.3862253e-03   6.7000306e-04
 -3.2832581e-01   1.4663500e-03
  6.0579872e-01   5.4151606e-04
  2.2270909e-01   2.0831716e-04
 -1.3194309e-01   6.8849869e-05
  4.3223733e-01   6.2218786e-04
 -9.9796611e-01   7.8183151e-04
  2.5899118e-01   2.2051284e-04
  5.2046323e-01   4.2879704e-04
  2.8194740e-01   3.6860493e-04
  4.2883016e-02   6.1472337e-04
  7.8005061e-02   3.3679258e-04
  1.7172949e-01   1.9596348e-04
 -1.9272320e-03   1.4676650e-04
 -8.9492601e-01   7.9032456e-05
  1.8550287e-01   1.3760186e-04
  3.4481138e-01   3.4386970e-04
  4.2682882e-02   1.4988338e-03
 -3.3841211e-02   1.5795579e-04
 -5.0787926e-02   1.7838640e-04
 -2.5467089e-01   3.1631204e-04
 -4.5006686e-01   2.4724408e-04
 -3.9160788e-01   5.1655725e-04
  2.5450951e-01   7.3340308e-04
  4.8509808e-03   1.6307086e-03
 -5.2230265e-02   1.1966204e-04
  5.8193896e-02   4.5103839e-04
 -2.0551828e-01   9.7069098e-04
 -1.9082451e-01   1.4343034e-03
  7.1050137e-01   1.4150620e-03
 -1.9852503e-01   4.2787730e-03
  7.9129525e-03   1.7224513e-03
 -1.0962670e-03   9.1623777e-04
 -1.0432386e-02   1.1628340e-03
  1.0189517e-01   6.1972399e-04
 -2.1422829e-02   1.0021521e-03
  3.2164127e-01   6.2271534e-04
 -7.0548160e-03   7.2590553e-04
 -1.2131393e-03   6.5700401e-04
 -1.1584870e-04   1.2277582e-03
  5.2671069e-03   2.0628395e-03
  4.8846249e-03   1.3073586e-03
  2.2667503e-02   1.5930191e-04
 -9.8029086e-03   8.9866476e-04
 -4.4340827e-03   1.9294799e-03
 -1.5153005e-03   1.8324468e-03
  1.5369889e-03   9.2987687e-04
 -8.6213392e-04   3.5020635e-03
  1.5694741e-03   1.8441281e-03
  4.4618342e-03   2.1998312e-04
 -6.3148146e-03   1.7696469e-03
  2.8960940e-03   1.9559388e-03
  1.2490215e-02   1.7885506e-03
  1.6459838e-02   2.8036546e-03
 -4.0594558e-03   1.4112979e-03
 -5.6564049e-03   1.6794187e-03
  5.3876587e-03   1.7751207e-03
  1.8497749e-03   9.9488290e-04
  3.5818620e-04   8.2466623e-04
  7.1988623e-03   2.4882937e-03
 -4.6762405e-03   1.6521401e-03
 -1.7142660e-03   4.8654253e-04
 -3.9413972e-03   7.8747631e-04
 -2.4349890e-03   1.9986033e-03
  1.5715692e-02   1.0470321e-03
 -4.4716187e-03   2.1564728e-03
 -8.0295410e-03   2.1206876e-03
 -5.5212248e-03   2.7686535e-04
  5.7141958e-03   2.1969608e-03
  1.1397979e-02   2.4268965e-03
 -2.7607819e-03   9.8166917e-04
  5.1231300e-03   1.9284370e-03
  1.3687858e-02   2.1422869e-03
  3.5589063e-03   1.3645629e-03
  1.1092477e-02   7.9937506e-04
  1.3986679e-03   2.5997092e-03
 -1.2524619e-03   1.7274523e-03
  9.7938552e-03   1.6134798e-03
  3.9972928e-03   9.0350222e-04
 -9.4753094e-03   2.5107965e-03
 -3.3252770e-03   1.0352598e-03
  1.0731705e-02   1.3738580e-03
 -3.4650064e-03   1.1395290e-03
  1.2423227e-02   1.0852026e-03
 -1.0575008e-03   5.9683411e-04
 -9.9240588e-03   1.0104108e-03
  1.6051224e-03   1.2778688e-03
 -3.9044407e-04   6.1295572e-04
 -1.7596924e-03   7.9959561e-04
  8.6789933e-04   1.0686411e-03
 -2.7534484e-03   1.1913971e-03
  1.3258219e-02   1.5040606e-03
  6.3674520e-03   1.0379433e-03
 -1.7578886e-03   2.4986730e-03
 -2.4642150e-03   2.7731643e-03
 -3.0179131e-03   2.2440271e-03
 -7.5130453e-03   2.0762424e-03
 -5.8213207e-03   1.9697852e-03
  3.9120996e-03   9.5567218e-04
  1.8843481e-03   8.8754838e-04
 -3.9685359e-03   3.7974382e-03
 -2.3153008e-04   1.3408428e-03
 -7.0701106e-03   1.6535867e-03
 -3.8798414e-03   9.2953333e-04
  8.3612109e-04   1.0114957e-03
  3.3730874e-04   3.4405626e-03
  1.4908443e-03   2.3126251e-04
  5.1260423e-03   2.5350398e-03
 -9.4540333e-03   5.9409154e-04
  5.8321059e-03   1.8277122e-03
  1.2289900e-03   1.0844429e-03
  1.6457539e-04   1.8488737e-03
  5.8465018e-03   2.5527170e-03
 -2.8937764e-04   4.1528064e-04
  3.5477948e-01   1.0237411e-04
  4.1338266e-03   5.9108343e-04
  5.1787111e-04   9.8127080e-04
  1.0428620e-02   1.1999805e-03
  4.8850768e-04   2.1046139e-03
 -1.0681828e-04   4.9956283e-04
 -1.5499629e-03   1.4016340e-03
 -3.8360218e-03   6.2410737e-04
  7.5364514e-04   1.9560214e-03
 -1.3568382e-02   1.1965849e-04
  9.6559221e-01   1.9492811e-06
  8.4294006e-03   1.1899944e-04
 -2.3210503e-01   6.8249734e-05
 -2.4840522e-01   2.2487273e-05
  1.2592666e+00   2.9649603e-04
 -6.6107176e-02   4.0184728e-05
 -5.0643915e-01   1.5206242e-04
 -3.1376857e-01   2.5815465e-05
 -2.3587339e-03   1.8272896e-03
 -5.0440216e-01   6.0602166e-03
  4.7947246e-01   9.7187050e-04
  7.2138983e-01   2.4358768e-04
  1.3376350e+00   4.4986847e-04
  1.8435268e+00   3.1436526e-04
 -8.5489178e-01   2.0488515e-03
 -8.6234234e-02   2.5904478e-04
  1.0951678e+00   1.4944632e-04
 -5.2366398e-02   1.4365320e-03
  7.9682335e-02   4.7656539e-04
  8.4174925e-01   4.6595535e-05
  1.3376987e+00   3.5458867e-04
  3.6841828e-02   1.7451152e-04
  1.5573823e+00   5.1635048e-05
 -1.6790762e+00   1.3722852e-04
 -1.4456250e-02   1.1068867e-03
  4.6461701e-02   8.2440965e-04
  2.1872735e+00   5.9424594e-05
  8.2200444e-01   3.0967683e-04
  7.4312188e-02   5.5822162e-05
  1.4331315e-01   5.4199476e-04
 -2.1900632e-03   6.0395658e-04
 -2.4811606e-04   9.3217898e-04
  1.1124437e-02   5.6359341e-04
  6.4438391e-01   2.4709123e-04
  6.3080627e-01   5.7666417e-04
  5.3852594e-01   6.8827701e-04
 -4.4742178e-02   1.8867004e-03
 -2.4283496e-03   1.7324805e-03
 -2.2174555e-03   1.3019745e-03
  1.7861680e-03   7.5671320e-05
 -6.2186885e-01   1.5635256e-03
  3.0280421e-03   2.9633127e-03
  3.9622363e-01   2.1169926e-03
 -1.0900056e-01   3.7435823e-04
 -1.3749422e-01   6.0464539e-05
  4.2501521e-01   2.0235140e-04
 -3.5693940e-02   7.6904267e-05
 -8.0720209e-02   1.7041636e-04
  3.1761259e-02   6.5080728e-04
 -1.2956525e+00   3.8489852e-05
 -2.5491741e-01   3.2976372e-04
 -7.7943675e-02   4.1419291e-04
 -3.7615228e-01   6.5641885e-04
  1.9168969e-03   5.4012967e-04
  5.4358630e-03   5.4989726e-04
 -4.0815645e-03   1.1397263e-03
 -1.1231149e-04   1.3828335e-03
 -1.8916139e-02   1.7008325e-03
 -1.8074973e-03   1.6815331e-03
  9.7398899e-02   5.3031382e-04
  8.5215447e-03   2.6552933e-03
 -4.5174672e-03   5.0219666e-04
 -1.2428480e-01   2.1487288e-03
  6.2284783e-02   8.8700501e-05
  3.9506317e-03   1.4013550e-03
  1.6315380e-01   4.3708229e-04
 -1.8634720e-01   3.0943751e-04
 -3.4083161e-01   4.1812327e-04
 -1.0313542e-02   8.3731127e-04
 -5.5269892e-03   2.6718667e-03
  2.7927354e-03   7.9748483e-04
 -2.0032521e-01   1.7120443e-04
  2.5656599e-01   2.2057105e-04
  6.9505400e-03   9.3581871e-04
  1.1667935e-03   1.2615082e-03
 -5.9712783e-04   1.4732879e-03
  2.9311265e-04   9.7305834e-04
 -3.9274454e-02   5.1147054e-04
 -8.4113471e-02   7.7628042e-04
  1.3831368e-03   1.3796902e-03
 -1.1362628e-02   2.5852453e-03
 -2.5111497e-03   2.3124784e-03
  6.6475250e-02   3.4439421e-04
  1.1973773e-02   2.1150003e-03
 -1.1951891e-02   2.4304376e-03
 -1.2111454e-03   2.3164568e-03
 -5.4477062e-03   3.6533489e-03
 -6.3976229e-05   6.0882873e-04
  6.8442957e-03   2.5739655e-04
 -9.5274588e-03   2.2377092e-03
  1.2523296e-02   6.1175658e-04
 -3.1405119e-03   6.7278947e-04
 -1.1470411e-02   1.3538961e-03
 -4.0405300e-03   7.8481430e-04
 -3.6021073e-03   3.7575635e-04
  7.9237763e-03   1.0628200e-03
  5.6080790e-03   1.2546702e-03
 -2.1953536e-03   3.8356896e-04
 -1.2859277e-04   2.7905051e-03
 -5.3349399e-04   1.4918492e-03
 -3.6314477e-03   3.5089690e-03
  1.0865808e-03   2.6916331e-03
  1.0496276e-02   2.7156461e-03
  1.5412960e-02   7.7494705e-04
  1.3697200e-02   5.4351025e-04
  6.1167477e-05   9.9885918e-04
  1.8757684e-02   1.3296603e-03
 -5.8616721e-03   1.2363147e-03
 -1.0554516e-02   6.2573858e-04
 -1.2124926e-03   1.7962942e-03
  5.0450832e-04   6.0152059e-04
  6.3568954e-03   1.3340110e-03
 -3.3408669e-03   1.8560980e-03
 -3.2555652e-03   1.6380058e-03
 -5.5614091e-04   7.6639012e-04
 -4.7239438e-03   2.2759761e-03
  2.4495698e-03   1.0286751e-03
  2.3189101e-03   6.9638557e-04
  1.7538961e-03   1.7422885e-03
  3.6904116e-03   1.8215862e-03
 -3.2719603e-04   8.3139766e-04
 -1.6142284e-02   1.3181992e-03
 -9.2902472e-03   3.0895011e-03
  7.9580620e-03   1.8851858e-03
  2.3839194e-03   1.0040741e-03
  4.5295763e-03   1.0743310e-03
  1.7553943e-03   1.7894909e-03
 -7.8739775e-03   2.0597260e-03
 -1.6694153e-03   2.1115784e-03
 -2.1132540e-02   4.2249452e-05
  2.0850087e-03   2.5915403e-03
  7.6265819e-04   1.0911213e-03
 -2.2057613e-02   3.9826494e-04
 -1.0340525e-03   1.4776528e-03
 -7.0265564e-04   1.4353468e-03
  7.5735236e-03   9.1670174e-04
 -1.8560221e-02   3.3031742e-03
 -6.3161278e-01   7.5355172e-05
 -1.5204187e-03   1.8895532e-03
  5.9830565e-03   1.7739282e-03
  8.6484011e-03   2.5445241e-03
  5.6135962e-03   2.5863862e-03
  3.4023782e-03   8.8141655e-04
 -4.0138516e-04   7.8096450e-04
  8.3313594e-03   1.9328507e-03
  6.3765105e-03   1.0566971e-03
 -1.2420957e-03   5.7883514e-04
 -3.8988611e-03   2.4028562e-03
  3.7716327e-05   8.5297646e-04
  1.0298399e-02   5.3667574e-04
 -5.2891410e-04   1.6156834e-03
  1.8087856e-02   1.7377294e-03
  7.9271328e-03   2.0264525e-03
 -7.9242820e-03   1.6917941e-03
 -2.2662434e-04   1.8158758e-03
  4.4206376e-03   1.8268109e-03
 -2.4793493e-03   1.7197283e-03
 -5.2834130e-03   2.6602885e-03
  6.1624432e-03   1.5542718e-03
 -3.6120049e-03   8.5590285e-04
 -3.1655899e-04   7.0301438e-04
  2.1282594e+00   3.8525183e-04
 -1.2827769e-02   2.9187794e-03
  3.4947011e-03   2.1370642e-03
  1.5550131e-02   3.8326513e-03
  1.2921016e-03   9.1774185e-04
  3.6506452e-02   2.4972355e-03
  1.8339054e-04   3.7573438e-04
  3.3045192e-03   1.0461680e-03
  7.4411096e-04   1.9755543e-03
 -6.9819484e-04   7.3587260e-04
 -3.0570370e-01   4.5530091e-04
  8.7343634e-04   8.7836676e-04
 -1.4625577e-03   9.6208480e-04
  2.4792089e-03   3.7038352e-04
 -8.6028457e-02   1.4809243e-04
  9.8851137e-02   1.4686134e-05
  1.4708182e-01   1.3278384e-04
 -3.0337617e-01   1.0469089e-04
 -3.2292861e-01   1.0395571e-04
  6.7492768e-02   3.6233125e-04
 -8.7164238e-02   3.7801874e-05
 -5.8942445e-02   1.2618555e-04
  5.0540190e-02   4.3704672e-04
 -6.1772531e-01   2.9543220e-04
  2.5983781e-01   5.1698647e-04
 -1.8031783e-02   3.0292699e-04
 -2.8813258e-01   7.0231227e-04
 -5.0223696e-01   7.9920935e-04
 -6.2747079e-01   3.2030235e-04
  1.3966129e-02   2.3306617e-04
  1.0611172e-01   2.8308667e-04
 -1.0039230e-01   7.5817620e-04
 -1.3708648e-01   4.5573953e-04
 -1.5971102e-01   3.7877628e-04
 -3.5467935e-01   1.4799216e-04
 -3.5598046e-01   2.5079807e-04
  2.8369701e-02   1.1616173e-04
 -3.1398952e-02   9.5136304e-05
 -3.2905370e-02   1.4860586e-04
 -1.8328884e-01   3.5431763e-04
 -3.4588572e-01   5.4356310e-04
 -8.7303318e-02   6.1822466e-05
 -1.3591999e-01   6.5061191e-05
 -2.3276271e-01   3.0220111e-04
  1.7638420e-03   1.9148190e-04
 -1.2534111e-02   3.9740058e-04
 -1.9999500e-01   7.0532062e-04
 -5.3184593e-01   1.2898316e-03
 -8.2920901e-03   1.7820513e-04
 -5.8736914e-01   1.2678377e-04
  2.1824675e-02   5.3966494e-04
  2.7797280e-03   3.4642164e-04
 -6.1794931e-01   6.0256380e-03
  9.6562229e-02   3.1285179e-03
  5.3330441e-03   8.3254452e-04
  5.8223656e-03   9.6952257e-04
 -1.5547857e-01   9.9222176e-04
 -2.0109263e-01   7.4391044e-04
  1.2265871e-02   3.3379230e-04
  1.4606145e-01   1.3759990e-04
  1.1126534e-02   6.4123480e-04
 -2.3713471e-02   3.1553488e-04
  4.8477326e-05   4.4193389e-04
  8.1356317e-03   1.3362055e-03
  5.3347450e-02   3.2992079e-04
 -1.0329359e-02   1.7303089e-04
  1.6611826e-02   1.7044999e-03
 -9.4020758e-03   1.4268082e-03
  9.0636977e-04   1.1090271e-03
  3.9716801e-03   2.0203020e-03
  5.3229281e-03   4.8301424e-04
  1.2154399e-03   1.1778491e-03
 -4.2676963e-03   1.2613139e-03
  3.7309520e-03   2.1002907e-03
 -1.1034500e-02   7.1085349e-04
  9.2807645e-03   1.9395375e-03
  2.8262814e-03   6.2494946e-04
 -2.6985791e-03   1.0359751e-03
  4.4323476e-03   1.6227403e-03
 -6.0292496e-03   1.0555151e-03
 -6.7690993e-04   1.6156036e-03
  1.0392543e-01   1.7863831e-04
  2.1163533e-03   1.8328488e-03
 -3.9292956e-03   1.6216023e-03
  2.8707993e-03   2.1179139e-03
  7.1901176e-04   5.1208085e-04
  1.5607084e-01   1.1964489e-03
  2.5048669e-02   9.1831613e-04
 -7.5432571e-04   5.6042999e-04
 -1.2195614e-02   2.1589561e-03
  1.9303141e-03   1.3808499e-03
 -4.4250656e-03   1.9598890e-03
 -3.2731574e-02   6.7893078e-04
 -9.8039992e-03   1.2952987e-03
  1.4716892e-02   1.4135033e-03
 -2.9308344e-03   4.5703389e-04
 -2.3289075e-02   1.3653598e-03
 -8.2875099e-03   1.3088756e-03
 -1.8637934e-03   1.7330154e-03
  6.1008316e-03   2.9476293e-04
 -5.1679434e-03   2.2358177e-03
 -9.8037810e-05   1.3500951e-03
 -2.0424043e-01   1.0344334e-04
 -9.4256945e-02   5.0780556e-05
  3.7197345e-01   1.6005375e-04
 -3.5817987e-01   7.1053852e-05
 -1.0390700e-01   5.0863840e-05
 -1.6422674e-01   3.9093356e-04
  1.7114017e-02   4.2578227e-05
 -2.9949591e-02   2.2119434e-04
 -1.7732435e-01   7.4673665e-04
  4.6656680e-01   5.0809683e-04
 -1.5111249e-02   5.8894412e-04
 -5.7208109e-01   5.9832865e-04
  2.6108664e-01   1.4707324e-03
  2.4483819e-01   1.1043509e-03
  3.7430655e-02   8.1541733e-04
 -7.9040356e-02   2.5837970e-04
  3.6041155e-01   2.2690516e-04
  5.0055250e-03   1.0672051e-03
  3.6957350e-02   3.4543729e-05
  2.0672140e-01   7.8492233e-04
  8.5514224e-01   2.3504005e-04
  2.0741057e-01   5.9991394e-04
  3.3126479e-01   6.9884205e-04
  4.2277715e-01   2.3530274e-04
  1.4596511e-01   2.6298841e-04
  1.9252535e-02   1.0150076e-03
  4.4306061e-01   8.4550335e-04
  4.0569752e-02   3.9666324e-04
 -9.9988014e-02   4.3872127e-04
  8.5807249e-02   7.5819879e-04
 -1.4706756e-01   1.1885396e-03
  2.3277551e-03   4.0675150e-04
  2.4312109e-02   2.3891873e-04
  1.5150525e-01   5.6372903e-04
 -6.0502654e-01   5.7993783e-04
  4.9838480e-02   8.2792935e-04
  2.4445107e+00   3.1294522e-04
 -2.1411809e-03   1.4014912e-03
  1.6422641e-01   3.1761439e-03
  6.7945360e-03   3.2758715e-03
 -1.3146590e-02   4.9110770e-04
  3.7216157e-01   3.2930810e-04
  3.1320280e-01   4.1700457e-03
  2.9206531e-02   1.5639979e-03
  2.3154882e-03   1.4283832e-03
  1.3919805e+00   1.4729705e-04
 -8.2527241e-03   1.0584537e-03
  1.1537493e-02   8.2229462e-04
  8.2751289e-03   7.0306554e-04
  9.2809824e-03   1.3911221e-03
 -6.2993199e-02   8.9324906e-04
  1.6000398e-02   8.8355702e-04
 -1.0683355e-03   1.4933546e-03
  1.6513786e-03   2.1674989e-03
  2.8678288e-03   1.7214826e-03
  7.6625305e-03   5.2982318e-04
 -1.9577809e-03   9.2224992e-04
 -1.8154342e-03   1.9666830e-03
 -4.4448124e-04   1.8175780e-03
 -8.1473989e-03   1.1400962e-03
  1.5073741e-02   1.6630582e-03
 -1.8127471e-03   7.2664104e-04
  5.3866310e-03   1.4547239e-03
 -1.8581606e-03   1.2063911e-03
  7.1106962e-04   1.0260179e-03
  2.0432803e-03   2.0346045e-03
  4.2932650e-01   2.1008839e-04
  5.5805068e-03   2.4308763e-03
  5.2547241e-03   1.2165341e-03
  1.6224821e-01   8.2612351e-05
 -2.1684133e-02   1.6223220e-03
 -4.6868710e-04   1.6597313e-03
  4.9905814e-03   1.7352933e-03
  2.1837789e-03   1.4712001e-03
 -9.0130910e-05   1.0442416e-03
  1.0124102e-03   1.1181638e-03
  6.9407029e-03   8.8502764e-04
 -1.3759524e-02   2.1779025e-03
  3.5681725e-03   2.1528667e-03
 -2.0813334e-03   8.2624785e-04
 -1.3940829e-03   4.0867869e-04
 -4.0686107e-03   9.2826626e-04
  3.8250051e-03   1.3841442e-03
 -1.1327568e-03   1.6489802e-03
  6.0860516e-04   4.3010197e-04
 -2.9708767e-02   1.6129158e-03
  8.4845275e-03   1.8117428e-03
  1.1905781e-03   2.6263311e-03
  1.5915142e-01   2.3209755e-04
  1.6403334e-01   1.0921067e-05
 -2.3404826e-01   1.4898521e-04
 -9.9721968e-01   1.7235421e-05
  7.4046507e-02   2.0423369e-04
 -1.2945808e+00   5.5444918e-05
  1.7542045e-01   2.3428849e-05
 -1.2640659e+00   2.3516822e-04
 -2.0832044e-01   1.3344543e-04
  1.3968614e+00   1.3891425e-03
 -9.0336315e-03   9.5800729e-04
  6.4344496e-02   7.9253972e-05
 -2.8133091e-01   4.7436934e-05
 -8.9513883e-03   3.4873164e-04
  1.8719375e+00   1.9736093e-04
 -1.5760012e-01   2.2560531e-04
 -2.4361673e-01   3.0080209e-04
  5.1899874e-01   2.1702403e-04
  4.6518099e-01   4.5603287e-04
  6.8075128e-02   4.7833024e-04
  2.0017181e-01   7.5709788e-05
  1.6211679e+00   9.2681854e-05
 -8.4156781e-02   2.6927664e-04
 -4.0559533e-01   2.9112934e-04
 -1.2967561e+00   6.4718908e-05
  9.9819623e-02   9.6736127e-04
  1.8428420e-01   1.9377486e-03
  1.7226188e-01   9.2684830e-05
  1.6192262e+00   2.5754443e-05
  8.6699820e-01   1.3969961e-04
 -3.7402245e-01   1.3800398e-03
 -5.2405670e-02   4.5235152e-04
  2.0595644e-01   1.4382057e-03
  2.7037570e-01   1.6364652e-03
  8.5938275e-01   9.2962830e-05
  7.9491148e-03   1.0068525e-03
 -4.8492676e-01   5.7020108e-04
  9.8703153e-02   3.3634878e-04
  1.7792527e-01   3.7197075e-03
 -2.1557219e-03   1.1803291e-03
 -3.1140834e-02   2.8144405e-04
  1.8912641e-02   1.9977682e-03
  3.3959624e-01   1.6231162e-03
  1.6305763e-01   1.5269700e-03
  2.8281761e-03   1.3940625e-03
 -1.1135376e-02   3.4479308e-04
 -9.5671918e-03   5.5454555e-04
 -4.1696891e-02   5.5507588e-04
  3.9555128e-03   1.3395234e-03
 -8.3467181e-05   1.1442237e-03
  6.9804266e-03   6.3694629e-04
  2.9757335e-03   6.9179974e-04
 -1.2944285e-02   1.2595280e-03
  1.9607142e-02   7.8607036e-04
  2.2090436e-03   4.1453814e-04
  1.5121077e-02   7.6411926e-04
  9.5127160e-03   7.7107176e-04