
***************************************************************
*                 Welcome to use GPUMD                        *
*    (Graphics Processing Units Molecular Dynamics)           *
*                     Version 3.8                             *
*              This is the nep executable                     *
***************************************************************


---------------------------------------------------------------
GPU information:
---------------------------------------------------------------

number of GPUs = 1
Device id:                   0
    Device name:             NVIDIA GeForce RTX 4090
    Compute capability:      8.9
    Amount of global memory: 23.6431 GB
    Number of SMs:           128

---------------------------------------------------------------
Started running nep.
---------------------------------------------------------------


---------------------------------------------------------------
Started reading nep.in.
---------------------------------------------------------------

Input or default parameters:
    (default) model_type = potential.
    (default) calculation mode = train.
    (input)   use NEP version 4.
    (input)   number of atom types = 2.
        (default) type 0 (Cu with Z = 29) has force weight of 1.
        (default) type 1 (Se with Z = 34) has force weight of 1.
    (default) will not add the ZBL potential.
    (input)   radial cutoff = 7 A.
    (input)   angular cutoff = 5 A.
    (input)   n_max_radial = 8.
    (input)   n_max_angular = 6.
    (input)   basis_size_radial = 12.
    (input)   basis_size_angular = 12.
    (input)   l_max_3body = 4.
    (input)   l_max_4body = 2.
    (input)   l_max_5body = 0.
    (input)   number of neurons = 50.
    (default) lambda_1 = -1.
    (default) lambda_2 = -1.
    (input)   lambda_e = 1.
    (input)   lambda_f = 1.
    (input)   lambda_v = 0.2.
    (default) lambda_shear = 1.
    (default) force_delta = 0.
    (input)   batch size = 1000.
    (input)   population size = 50.
    (input)   maximum number of generations = 200000.
Some calculated parameters:
    number of radial descriptor components = 9.
    number of angular descriptor components = 35.
    total number of descriptor components = 44.
    NN architecture = 44-50-1.
    number of NN parameters to be optimized = 4601.
    number of descriptor parameters to be optimized = 832.
    total number of parameters to be optimized = 5433.

---------------------------------------------------------------
Finished reading nep.in.
---------------------------------------------------------------


---------------------------------------------------------------
Started reading train.xyz.
---------------------------------------------------------------

Number of configurations = 200.
Number of devices = 1
Number of batches = 1
Hello, I changed the batch_size from 1000 to 200.

Batch 0:
Number of configurations = 200.

---------------------------------------------------------------
Constructing train_set in device  0.
Total number of atoms = 54580.
Number of atoms in the largest configuration = 596.
Number of configurations having virial = 200.
Radial descriptor with a cutoff of 7 A:
    Minimum number of neighbors for one atom = 64.
    Maximum number of neighbors for one atom = 100.
Angular descriptor with a cutoff of 5 A:
    Minimum number of neighbors for one atom = 20.
    Maximum number of neighbors for one atom = 44.
---------------------------------------------------------------


---------------------------------------------------------------
Started reading test.xyz.
---------------------------------------------------------------

Number of configurations = 170.

---------------------------------------------------------------
Constructing test_set in device  0.
Total number of atoms = 50240.
Number of atoms in the largest configuration = 596.
Number of configurations having virial = 170.
Radial descriptor with a cutoff of 7 A:
    Minimum number of neighbors for one atom = 63.
    Maximum number of neighbors for one atom = 95.
Angular descriptor with a cutoff of 5 A:
    Minimum number of neighbors for one atom = 20.
    Maximum number of neighbors for one atom = 40.
---------------------------------------------------------------


---------------------------------------------------------------
Time used for initialization = 0.072071 s.
---------------------------------------------------------------


---------------------------------------------------------------
Started training.
---------------------------------------------------------------

Step    Total-Loss L1Reg-Loss L2Reg-Loss RMSE-E-Train RMSE-F-Train RMSE-V-Train RMSE-E-Test  RMSE-F-Test  RMSE-V-Test  
100     0.37662    0.06780    0.08289    0.00716      0.19828      0.10246      0.00903      0.18347      0.09004      
200     0.34836    0.06738    0.08376    0.01077      0.16394      0.11259      0.01497      0.15436      0.15609      
300     0.35020    0.07227    0.09026    0.00824      0.15914      0.10146      0.01175      0.15356      0.12570      
400     0.37844    0.08117    0.10203    0.01087      0.16188      0.11246      0.02389      0.14970      0.11209      
500     0.38652    0.08605    0.10850    0.01182      0.16324      0.08452      0.01407      0.15041      0.10347      
600     0.37982    0.08674    0.11023    0.00494      0.16399      0.06963      0.00827      0.16113      0.05934      
700     0.40388    0.09526    0.12037    0.00758      0.16552      0.07579      0.01209      0.15834      0.06300      
800     0.41306    0.09978    0.12604    0.01122      0.15588      0.10074      0.01652      0.15008      0.09155      
900     0.39292    0.09705    0.12210    0.01174      0.14687      0.07584      0.01305      0.14067      0.09482      
1000    0.41252    0.10344    0.13064    0.00656      0.15886      0.06509      0.00859      0.15057      0.07350      
1100    0.44037    0.11275    0.14135    0.00922      0.14817      0.14437      0.01377      0.13849      0.12573      
1200    0.40301    0.10460    0.13103    0.00700      0.14882      0.05779      0.01849      0.13799      0.05300      
1300    0.41686    0.10929    0.13744    0.00525      0.15227      0.06300      0.01327      0.14201      0.07825      
1400    0.43706    0.11593    0.14587    0.01181      0.15324      0.05105      0.01168      0.15232      0.06935      
1500    0.45062    0.12022    0.15231    0.00973      0.14864      0.09865      0.01132      0.13772      0.12490      
1600    0.42107    0.11392    0.14388    0.00513      0.14511      0.06512      0.00996      0.14511      0.04633      
1700    0.39986    0.10922    0.13800    0.00602      0.13710      0.04766      0.01042      0.13150      0.04908      
1800    0.39604    0.10947    0.13825    0.00781      0.13414      0.03183      0.01095      0.12969      0.03644      
1900    0.41462    0.11561    0.14585    0.00594      0.13546      0.05882      0.01025      0.12829      0.06024      
2000    0.40703    0.11410    0.14427    0.00342      0.13456      0.05339      0.00595      0.13298      0.07822      
2100    0.40184    0.11366    0.14362    0.00688      0.13005      0.03820      0.00832      0.12596      0.05845      
2200    0.42652    0.12147    0.15375    0.00640      0.13239      0.06257      0.00897      0.13078      0.07147      
2300    0.40975    0.11746    0.14895    0.00816      0.12663      0.04278      0.01390      0.12121      0.03796      
2400    0.41438    0.11946    0.15183    0.00432      0.12847      0.05153      0.01006      0.12237      0.05808      
2500    0.40440    0.11763    0.14920    0.00852      0.12249      0.03279      0.01155      0.11854      0.03808      
2600    0.39648    0.11609    0.14716    0.00588      0.12107      0.03141      0.00953      0.11743      0.04250      
2700    0.41849    0.12323    0.15637    0.00746      0.12062      0.05401      0.00789      0.11854      0.04759      
2800    0.39998    0.11813    0.14993    0.00549      0.11943      0.03494      0.00695      0.11527      0.02902      
2900    0.40561    0.12017    0.15263    0.00546      0.12033      0.03508      0.00771      0.11522      0.03966      
3000    0.39992    0.11905    0.15116    0.00640      0.11499      0.04157      0.00707      0.10874      0.05158      
3100    0.41177    0.12325    0.15607    0.00296      0.12198      0.03753      0.00677      0.11722      0.03754      
3200    0.39165    0.11760    0.14920    0.00507      0.11430      0.02741      0.00524      0.10991      0.04065      
3300    0.40572    0.12216    0.15539    0.00444      0.11600      0.03874      0.00607      0.11391      0.05329      
3400    0.42172    0.12720    0.16236    0.00493      0.12196      0.02635      0.00607      0.11806      0.02639      
3500    0.40811    0.12338    0.15782    0.00426      0.11739      0.02629      0.00625      0.11604      0.03996      
3600    0.41087    0.12450    0.15950    0.00447      0.11620      0.03102      0.00786      0.11219      0.03600      
3700    0.40973    0.12483    0.15983    0.00562      0.11366      0.02896      0.00585      0.11086      0.03335      
3800    0.40656    0.12407    0.15917    0.00578      0.11179      0.02876      0.00949      0.10739      0.03124      
3900    0.40801    0.12477    0.16022    0.00736      0.10898      0.03339      0.00954      0.10522      0.05434      
4000    0.40919    0.12542    0.16132    0.00402      0.11119      0.03621      0.00677      0.10759      0.03156      
4100    0.40735    0.12521    0.16151    0.00508      0.10364      0.05954      0.00818      0.10129      0.06676      
4200    0.38448    0.11837    0.15292    0.00338      0.10378      0.03020      0.00386      0.10162      0.02928      
4300    0.40178    0.12417    0.15998    0.00400      0.10678      0.03423      0.00497      0.10406      0.03191      
4400    0.41004    0.12687    0.16368    0.00445      0.10867      0.03189      0.00742      0.10515      0.04571      
4500    0.40567    0.12594    0.16231    0.00372      0.10661      0.03544      0.00582      0.10371      0.02821      
4600    0.39770    0.12399    0.15954    0.00571      0.10382      0.02320      0.00740      0.10125      0.02996      
4700    0.39257    0.12254    0.15766    0.00397      0.10228      0.03060      0.00514      0.09609      0.04103      
4800    0.39922    0.12486    0.16085    0.00384      0.10416      0.02755      0.00682      0.09930      0.02041      
4900    0.41971    0.13111    0.16971    0.00676      0.10509      0.03519      0.00693      0.10051      0.04293      
5000    0.39145    0.12298    0.15872    0.00566      0.09855      0.02769      0.00729      0.09411      0.02939      
5100    0.40969    0.12896    0.16613    0.00332      0.10148      0.04894      0.00596      0.09573      0.04729      
5200    0.38944    0.12261    0.15841    0.00301      0.10065      0.02385      0.00839      0.09861      0.03675      
5300    0.40386    0.12751    0.16450    0.00354      0.10215      0.03076      0.00572      0.09902      0.02218      
5400    0.40565    0.12807    0.16561    0.00410      0.10227      0.02800      0.00581      0.09837      0.02551      
5500    0.40647    0.12839    0.16567    0.00467      0.10329      0.02229      0.00454      0.10000      0.03028      
5600    0.40197    0.12723    0.16413    0.00442      0.09999      0.03104      0.00334      0.09852      0.02804      
5700    0.40915    0.12991    0.16737    0.00505      0.10172      0.02550      0.00547      0.09861      0.02724      
5800    0.40076    0.12710    0.16417    0.00500      0.09967      0.02412      0.00583      0.09862      0.04005      
5900    0.40812    0.13002    0.16773    0.00295      0.10300      0.02212      0.00355      0.10059      0.04729      
6000    0.40768    0.13006    0.16767    0.00607      0.09948      0.02201      0.00547      0.09751      0.03412      
6100    0.39804    0.12730    0.16393    0.00318      0.09925      0.02187      0.00630      0.09448      0.05311      
6200    0.41641    0.13320    0.17206    0.00372      0.10124      0.03097      0.00404      0.09760      0.03996      
6300    0.40168    0.12840    0.16593    0.00354      0.09988      0.01964      0.00585      0.09611      0.02644      
6400    0.39994    0.12794    0.16568    0.00324      0.09880      0.02140      0.00463      0.09600      0.02703      
6500    0.38540    0.12372    0.15974    0.00317      0.09408      0.02349      0.00701      0.09102      0.04058      
6600    0.38763    0.12456    0.16083    0.00263      0.09378      0.02916      0.00628      0.09105      0.03039      
6700    0.39313    0.12672    0.16321    0.00390      0.09499      0.02156      0.00595      0.09215      0.02526      
6800    0.40670    0.13102    0.16890    0.00542      0.09622      0.02571      0.00553      0.09197      0.02799      
6900    0.38133    0.12293    0.15865    0.00309      0.09259      0.02032      0.00434      0.08838      0.03156      
7000    0.39335    0.12691    0.16383    0.00283      0.09548      0.02149      0.00547      0.09287      0.02707      
7100    0.38419    0.12418    0.16024    0.00338      0.09317      0.01615      0.00714      0.09068      0.02905      
7200    0.38495    0.12435    0.16097    0.00199      0.09348      0.02083      0.00646      0.09141      0.02615      
7300    0.38772    0.12547    0.16260    0.00407      0.09187      0.01858      0.00721      0.08972      0.02511      
7400    0.40980    0.13229    0.17196    0.00574      0.09602      0.01892      0.00850      0.09638      0.02743      
7500    0.38305    0.12389    0.16092    0.00219      0.09102      0.02516      0.00555      0.08922      0.02265      
7600    0.39044    0.12605    0.16400    0.00336      0.09334      0.01844      0.00505      0.09047      0.02407      
7700    0.37963    0.12264    0.15977    0.00298      0.09016      0.02045      0.00664      0.08699      0.03464      
7800    0.38422    0.12414    0.16165    0.00323      0.09089      0.02152      0.00673      0.08828      0.02370      
7900    0.38283    0.12382    0.16133    0.00362      0.08944      0.02308      0.00726      0.08794      0.02617      
8000    0.37758    0.12229    0.15910    0.00268      0.08838      0.02567      0.00604      0.08466      0.03255      
8100    0.37733    0.12234    0.15914    0.00333      0.08889      0.01813      0.00516      0.08615      0.02519      
8200    0.39026    0.12689    0.16449    0.00404      0.08944      0.02697      0.00764      0.08646      0.03066      
8300    0.37779    0.12273    0.15941    0.00266      0.08687      0.03058      0.00455      0.08496      0.03259      
8400    0.38110    0.12383    0.16102    0.00411      0.08744      0.02354      0.00619      0.08459      0.03209      
8500    0.37750    0.12262    0.16004    0.00287      0.08869      0.01633      0.00612      0.08524      0.02091      
8600    0.37450    0.12183    0.15876    0.00201      0.08780      0.02051      0.00721      0.08497      0.02473      
8700    0.38074    0.12403    0.16145    0.00369      0.08675      0.02409      0.00752      0.08384      0.02812      
8800    0.37200    0.12124    0.15788    0.00256      0.08688      0.01714      0.00389      0.08477      0.02355      
8900    0.38510    0.12555    0.16346    0.00285      0.08918      0.02032      0.00359      0.08773      0.02605      
9000    0.37805    0.12346    0.16074    0.00418      0.08500      0.02334      0.00564      0.08297      0.02625      
9100    0.36961    0.12072    0.15742    0.00294      0.08483      0.01848      0.00296      0.08358      0.02105      
9200    0.37659    0.12333    0.16043    0.00175      0.08580      0.02636      0.00436      0.08272      0.02262      
9300    0.37333    0.12243    0.15912    0.00243      0.08619      0.01582      0.00518      0.08459      0.02426      
9400    0.37658    0.12343    0.16062    0.00219      0.08744      0.01451      0.00599      0.08474      0.02476      
9500    0.38141    0.12496    0.16285    0.00183      0.08799      0.01886      0.00352      0.08482      0.02313      
9600    0.37578    0.12315    0.16054    0.00221      0.08575      0.02063      0.00481      0.08349      0.02623      
9700    0.37783    0.12374    0.16153    0.00279      0.08709      0.01336      0.00549      0.08549      0.02235      
9800    0.38571    0.12653    0.16473    0.00216      0.08707      0.02610      0.00658      0.08594      0.03210      
9900    0.37353    0.12243    0.15993    0.00301      0.08512      0.01522      0.00395      0.08318      0.01948      
10000   0.37142    0.12176    0.15905    0.00219      0.08508      0.01672      0.00395      0.08328      0.02639      
10100   0.38502    0.12630    0.16468    0.00336      0.08612      0.02280      0.00478      0.08471      0.03154      
10200   0.38133    0.12516    0.16349    0.00331      0.08544      0.01963      0.00466      0.08333      0.02618      
10300   0.38245    0.12556    0.16392    0.00384      0.08598      0.01575      0.00447      0.08496      0.02340      
10400   0.37087    0.12168    0.15928    0.00348      0.08334      0.01547      0.00401      0.08070      0.02529      
10500   0.36958    0.12156    0.15856    0.00250      0.08422      0.01371      0.00409      0.08289      0.02281      
10600   0.37714    0.12427    0.16174    0.00247      0.08532      0.01667      0.00680      0.08330      0.02365      
10700   0.37612    0.12400    0.16146    0.00390      0.08386      0.01454      0.00635      0.08215      0.02319      
10800   0.37368    0.12358    0.16051    0.00264      0.08268      0.02130      0.00433      0.08106      0.02701      
10900   0.38110    0.12615    0.16369    0.00255      0.08637      0.01168      0.00454      0.08462      0.02205      
11000   0.38181    0.12631    0.16411    0.00305      0.08494      0.01694      0.00509      0.08419      0.02363      
11100   0.38128    0.12594    0.16413    0.00444      0.08370      0.01541      0.00483      0.08147      0.01986      
11200   0.37508    0.12398    0.16140    0.00237      0.08441      0.01459      0.00322      0.08240      0.01958      
11300   0.38115    0.12616    0.16415    0.00333      0.08382      0.01845      0.00434      0.08199      0.02426      
11400   0.37781    0.12508    0.16271    0.00213      0.08424      0.01827      0.00376      0.08217      0.03166      
11500   0.36855    0.12196    0.15872    0.00242      0.08203      0.01708      0.00379      0.07925      0.02340      
11600   0.37642    0.12448    0.16217    0.00253      0.08445      0.01399      0.00468      0.08370      0.02374      
11700   0.37970    0.12545    0.16350    0.00247      0.08364      0.02319      0.00362      0.08070      0.02678      
11800   0.37224    0.12263    0.15995    0.00338      0.08337      0.01453      0.00432      0.08128      0.02167      
11900   0.36895    0.12191    0.15911    0.00203      0.08160      0.02157      0.00398      0.07938      0.02284      
12000   0.37312    0.12335    0.16097    0.00252      0.08348      0.01399      0.00451      0.08091      0.02253      
12100   0.36450    0.12042    0.15713    0.00213      0.08154      0.01642      0.00540      0.08013      0.02186      
12200   0.36811    0.12182    0.15884    0.00376      0.08122      0.01236      0.00449      0.07918      0.02389      
12300   0.36034    0.11932    0.15563    0.00184      0.08030      0.01630      0.00485      0.07923      0.02736      
12400   0.36096    0.11970    0.15581    0.00218      0.07986      0.01705      0.00495      0.07818      0.02573      
12500   0.35870    0.11876    0.15450    0.00210      0.08025      0.01549      0.00434      0.07836      0.02549      
12600   0.36134    0.11965    0.15585    0.00296      0.07971      0.01586      0.00391      0.07849      0.02515      
12700   0.35981    0.11911    0.15515    0.00236      0.08003      0.01573      0.00363      0.07736      0.02518      
12800   0.36509    0.12078    0.15739    0.00422      0.08001      0.01349      0.00582      0.07806      0.02432      
12900   0.35267    0.11678    0.15190    0.00203      0.07937      0.01294      0.00620      0.07725      0.02404      
13000   0.35529    0.11734    0.15307    0.00203      0.07991      0.01467      0.00413      0.07755      0.02433      
13100   0.35416    0.11698    0.15241    0.00190      0.07921      0.01834      0.00567      0.07649      0.02639      
13200   0.35422    0.11681    0.15220    0.00298      0.07971      0.01256      0.00612      0.07859      0.02439      
13300   0.34787    0.11489    0.14939    0.00269      0.07845      0.01227      0.00441      0.07669      0.02159      
13400   0.34686    0.11439    0.14902    0.00235      0.07790      0.01596      0.00452      0.07619      0.02119      
13500   0.34279    0.11319    0.14729    0.00216      0.07714      0.01511      0.00472      0.07587      0.02343      
13600   0.34874    0.11527    0.14993    0.00269      0.07806      0.01393      0.00366      0.07635      0.02265      
13700   0.35478    0.11725    0.15243    0.00263      0.07923      0.01624      0.00414      0.07745      0.02415      
13800   0.34827    0.11514    0.14983    0.00217      0.07847      0.01324      0.00429      0.07677      0.01939      
13900   0.34432    0.11388    0.14834    0.00234      0.07742      0.01173      0.00380      0.07588      0.02123      
14000   0.34839    0.11530    0.15025    0.00228      0.07796      0.01300      0.00359      0.07718      0.02058      
14100   0.35075    0.11601    0.15094    0.00263      0.07806      0.01561      0.00458      0.07679      0.01908      
14200   0.34811    0.11537    0.14996    0.00220      0.07768      0.01452      0.00519      0.07672      0.02586      
14300   0.34052    0.11268    0.14655    0.00157      0.07669      0.01517      0.00316      0.07530      0.02133      
14400   0.34741    0.11494    0.14948    0.00212      0.07765      0.01612      0.00670      0.07663      0.02296      
14500   0.33804    0.11134    0.14510    0.00178      0.07674      0.01538      0.00408      0.07568      0.02401      
14600   0.34636    0.11450    0.14916    0.00318      0.07712      0.01200      0.00440      0.07507      0.01971      
14700   0.34664    0.11468    0.14909    0.00220      0.07724      0.01714      0.00341      0.07542      0.02513      
14800   0.34504    0.11404    0.14835    0.00279      0.07688      0.01491      0.00337      0.07525      0.01916      
14900   0.33740    0.11127    0.14522    0.00177      0.07638      0.01382      0.00377      0.07492      0.02029      
15000   0.33974    0.11206    0.14619    0.00177      0.07668      0.01519      0.00430      0.07521      0.02298      
15100   0.34422    0.11343    0.14807    0.00239      0.07669      0.01827      0.00417      0.07495      0.02215      
15200   0.33776    0.11122    0.14504    0.00248      0.07675      0.01129      0.00418      0.07542      0.02062      
15300   0.33462    0.11026    0.14366    0.00215      0.07626      0.01147      0.00366      0.07488      0.02005      
15400   0.33618    0.11049    0.14411    0.00276      0.07616      0.01330      0.00393      0.07550      0.01910      
15500   0.33332    0.10949    0.14288    0.00181      0.07657      0.01281      0.00594      0.07476      0.02145      
15600   0.33607    0.11037    0.14414    0.00210      0.07701      0.01230      0.00338      0.07555      0.02182      
15700   0.33275    0.10938    0.14270    0.00207      0.07618      0.01209      0.00532      0.07438      0.02569      
15800   0.34295    0.11275    0.14706    0.00185      0.07760      0.01844      0.00480      0.07594      0.02302      
15900   0.33305    0.10932    0.14290    0.00188      0.07594      0.01509      0.00350      0.07381      0.01883      
16000   0.33098    0.10867    0.14198    0.00185      0.07562      0.01427      0.00319      0.07335      0.02317      
16100   0.32533    0.10682    0.13937    0.00164      0.07523      0.01133      0.00439      0.07339      0.02145      
16200   0.33470    0.10987    0.14351    0.00222      0.07627      0.01415      0.00377      0.07486      0.01956      
16300   0.33543    0.10993    0.14380    0.00234      0.07564      0.01858      0.00425      0.07352      0.02363      
16400   0.32586    0.10683    0.13952    0.00172      0.07531      0.01239      0.00265      0.07443      0.02163      
16500   0.33076    0.10857    0.14158    0.00220      0.07584      0.01282      0.00324      0.07412      0.02050      
16600   0.32740    0.10735    0.14036    0.00184      0.07518      0.01331      0.00390      0.07273      0.02045      
16700   0.32738    0.10734    0.14028    0.00171      0.07582      0.01114      0.00526      0.07401      0.02321      
16800   0.32460    0.10627    0.13922    0.00241      0.07470      0.00999      0.00397      0.07344      0.01955      
16900   0.32643    0.10679    0.13992    0.00181      0.07550      0.01198      0.00377      0.07421      0.02027      
17000   0.32134    0.10517    0.13784    0.00216      0.07428      0.00945      0.00322      0.07245      0.01920      
17100   0.32575    0.10660    0.13957    0.00238      0.07401      0.01594      0.00375      0.07245      0.01905      
17200   0.32198    0.10516    0.13798    0.00183      0.07465      0.01180      0.00637      0.07345      0.02248      
17300   0.31989    0.10452    0.13696    0.00144      0.07474      0.01119      0.00477      0.07328      0.02303      
17400   0.32106    0.10487    0.13737    0.00173      0.07479      0.01148      0.00482      0.07288      0.02103      
17500   0.31508    0.10269    0.13473    0.00176      0.07345      0.01223      0.00465      0.07163      0.02025      
17600   0.31574    0.10302    0.13504    0.00217      0.07344      0.01032      0.00356      0.07146      0.02147      
17700   0.31826    0.10387    0.13598    0.00180      0.07412      0.01244      0.00337      0.07223      0.02147      
17800   0.31896    0.10408    0.13655    0.00187      0.07454      0.00961      0.00470      0.07353      0.01918      
17900   0.31808    0.10381    0.13614    0.00267      0.07330      0.01077      0.00495      0.07186      0.02029      
18000   0.31709    0.10358    0.13559    0.00217      0.07309      0.01337      0.00435      0.07171      0.02150      
18100   0.31520    0.10284    0.13473    0.00192      0.07342      0.01148      0.00400      0.07242      0.02114      
18200   0.31628    0.10306    0.13499    0.00204      0.07362      0.01284      0.00507      0.07226      0.02132      
18300   0.31668    0.10332    0.13526    0.00187      0.07385      0.01187      0.00525      0.07245      0.02002      
18400   0.31367    0.10225    0.13391    0.00194      0.07285      0.01360      0.00434      0.07193      0.02181      
18500   0.31560    0.10290    0.13478    0.00210      0.07331      0.01252      0.00454      0.07211      0.02236      
18600   0.31594    0.10287    0.13471    0.00197      0.07342      0.01487      0.00537      0.07279      0.02175      
18700   0.31260    0.10192    0.13333    0.00189      0.07259      0.01437      0.00429      0.07164      0.02062      
18800   0.31113    0.10132    0.13239    0.00167      0.07300      0.01367      0.00478      0.07202      0.02227      
18900   0.31328    0.10181    0.13322    0.00167      0.07299      0.01800      0.00483      0.07210      0.02553      
19000   0.31045    0.10079    0.13205    0.00214      0.07245      0.01508      0.00457      0.07080      0.02489      
19100   0.30988    0.10065    0.13198    0.00201      0.07311      0.01064      0.00646      0.07106      0.02255      
19200   0.31036    0.10095    0.13195    0.00198      0.07321      0.01136      0.00492      0.07144      0.02014      
19300   0.30770    0.10009    0.13088    0.00195      0.07251      0.01137      0.00537      0.07069      0.02322      
19400   0.30451    0.09888    0.12948    0.00161      0.07222      0.01160      0.00513      0.07063      0.02037      
19500   0.30482    0.09890    0.12965    0.00165      0.07265      0.00989      0.00488      0.07151      0.01844      
19600   0.30619    0.09920    0.12993    0.00194      0.07253      0.01296      0.00520      0.07149      0.01913      
19700   0.30309    0.09796    0.12864    0.00197      0.07245      0.01032      0.00356      0.07075      0.02084      
19800   0.30289    0.09799    0.12854    0.00231      0.07178      0.01138      0.00338      0.07066      0.02018      
19900   0.30399    0.09844    0.12903    0.00205      0.07203      0.01216      0.00509      0.07070      0.02184      
20000   0.30124    0.09743    0.12774    0.00199      0.07181      0.01133      0.00476      0.07034      0.02014      
20100   0.30286    0.09805    0.12832    0.00273      0.07175      0.01005      0.00500      0.07052      0.01892      
20200   0.30376    0.09807    0.12871    0.00186      0.07296      0.01076      0.00476      0.07165      0.02113      
20300   0.30413    0.09813    0.12860    0.00200      0.07355      0.00930      0.00445      0.07206      0.02027      
20400   0.30073    0.09698    0.12737    0.00269      0.07141      0.01140      0.00398      0.06999      0.01964      
20500   0.29714    0.09573    0.12576    0.00178      0.07195      0.00959      0.00332      0.07070      0.01884      
20600   0.29569    0.09498    0.12514    0.00166      0.07191      0.00999      0.00500      0.07040      0.02122      
20700   0.29607    0.09519    0.12516    0.00188      0.07157      0.01129      0.00467      0.07087      0.01960      
20800   0.29615    0.09501    0.12503    0.00227      0.07186      0.00993      0.00542      0.07113      0.01868      
20900   0.29627    0.09509    0.12510    0.00170      0.07167      0.01359      0.00425      0.07044      0.02151      
21000   0.29194    0.09356    0.12330    0.00171      0.07152      0.00923      0.00410      0.07008      0.02017      
21100   0.29590    0.09480    0.12476    0.00173      0.07235      0.01132      0.00325      0.07045      0.01932      
21200   0.29131    0.09327    0.12282    0.00170      0.07143      0.01051      0.00459      0.06989      0.02181      
21300   0.29167    0.09326    0.12273    0.00264      0.07127      0.00886      0.00387      0.06953      0.01969      
21400   0.28964    0.09263    0.12189    0.00159      0.07156      0.00988      0.00427      0.06979      0.01957      
21500   0.28760    0.09179    0.12096    0.00171      0.07071      0.01219      0.00447      0.06928      0.01957      
21600   0.28773    0.09190    0.12101    0.00202      0.07091      0.00947      0.00394      0.06977      0.01803      
21700   0.28770    0.09172    0.12085    0.00159      0.07120      0.01169      0.00464      0.06991      0.02378      
21800   0.28317    0.09034    0.11879    0.00148      0.07029      0.01133      0.00340      0.06935      0.02033      
21900   0.28545    0.09061    0.11938    0.00172      0.07128      0.01230      0.00495      0.06987      0.01989      
22000   0.27932    0.08886    0.11694    0.00145      0.07015      0.00959      0.00342      0.06907      0.01709      
22100   0.28098    0.08934    0.11764    0.00167      0.07032      0.01006      0.00384      0.06892      0.01759      
22200   0.28098    0.08920    0.11756    0.00168      0.07060      0.00966      0.00341      0.06936      0.01668      
22300   0.27939    0.08878    0.11682    0.00159      0.07036      0.00919      0.00321      0.06870      0.01749      
22400   0.28028    0.08903    0.11707    0.00174      0.07071      0.00861      0.00375      0.06944      0.01813      
22500   0.28230    0.08970    0.11792    0.00204      0.07079      0.00924      0.00396      0.06924      0.01850      
22600   0.28348    0.09000    0.11840    0.00164      0.07129      0.01073      0.00376      0.07016      0.01954      
22700   0.28108    0.08916    0.11725    0.00197      0.07076      0.00971      0.00399      0.06956      0.02021      
22800   0.28068    0.08892    0.11708    0.00191      0.07056      0.01113      0.00357      0.06906      0.01909      
22900   0.27653    0.08767    0.11524    0.00142      0.07029      0.00952      0.00441      0.06847      0.02027      
23000   0.27450    0.08675    0.11446    0.00152      0.06969      0.01040      0.00433      0.06794      0.01955      
23100   0.27581    0.08739    0.11481    0.00139      0.07021      0.01003      0.00362      0.06888      0.01939      
23200   0.27794    0.08793    0.11555    0.00230      0.07025      0.00953      0.00499      0.06879      0.02048      
23300   0.27758    0.08795    0.11524    0.00149      0.06990      0.01494      0.00519      0.06865      0.02041      
23400   0.27448    0.08671    0.11386    0.00171      0.07015      0.01021      0.00411      0.06884      0.01952      
23500   0.27449    0.08648    0.11363    0.00158      0.07079      0.01006      0.00465      0.06948      0.02095      
23600   0.27358    0.08631    0.11343    0.00165      0.07033      0.00932      0.00492      0.06930      0.02018      
23700   0.27372    0.08622    0.11352    0.00161      0.07035      0.01010      0.00479      0.06889      0.02109      
23800   0.27284    0.08562    0.11281    0.00193      0.07039      0.01041      0.00418      0.06925      0.02040      
23900   0.27144    0.08525    0.11221    0.00212      0.06993      0.00967      0.00423      0.06869      0.02003      
24000   0.26789    0.08415    0.11068    0.00152      0.06963      0.00956      0.00430      0.06835      0.01991      
24100   0.27101    0.08494    0.11194    0.00195      0.06994      0.01122      0.00459      0.06847      0.02074      
24200   0.27232    0.08532    0.11227    0.00157      0.07126      0.00949      0.00341      0.07001      0.01900      
24300   0.27115    0.08501    0.11194    0.00159      0.07071      0.00950      0.00511      0.06940      0.01936      
24400   0.26912    0.08420    0.11103    0.00198      0.06999      0.00955      0.00342      0.06891      0.01937      
24500   0.26880    0.08423    0.11089    0.00164      0.07021      0.00914      0.00430      0.06914      0.02048      
24600   0.26863    0.08404    0.11075    0.00171      0.06983      0.01149      0.00401      0.06860      0.02053      
24700   0.26800    0.08389    0.11032    0.00206      0.06984      0.00944      0.00476      0.06846      0.02095      
24800   0.26627    0.08316    0.10953    0.00204      0.06978      0.00879      0.00411      0.06839      0.02095      
24900   0.26519    0.08292    0.10903    0.00169      0.06962      0.00962      0.00335      0.06812      0.02042      
25000   0.26469    0.08250    0.10887    0.00141      0.07009      0.00910      0.00339      0.06859      0.02240      
25100   0.26450    0.08229    0.10873    0.00212      0.06949      0.00934      0.00315      0.06816      0.02311      
25200   0.26476    0.08236    0.10862    0.00200      0.06922      0.01277      0.00492      0.06789      0.02492      
25300   0.26464    0.08248    0.10854    0.00203      0.06984      0.00877      0.00332      0.06873      0.02314      
25400   0.26311    0.08155    0.10791    0.00155      0.06987      0.01114      0.00319      0.06899      0.02217      
25500   0.26163    0.08124    0.10714    0.00179      0.06956      0.00953      0.00348      0.06821      0.01931      
25600   0.26263    0.08130    0.10743    0.00196      0.06981      0.01063      0.00302      0.06829      0.02058      
25700   0.26006    0.08055    0.10625    0.00142      0.06973      0.01061      0.00340      0.06859      0.02122      
25800   0.26186    0.08120    0.10709    0.00147      0.06985      0.01125      0.00364      0.06832      0.01978      
25900   0.25968    0.08017    0.10607    0.00141      0.07008      0.00975      0.00395      0.06938      0.02053      
26000   0.25953    0.08019    0.10617    0.00196      0.06931      0.00946      0.00489      0.06825      0.02162      
26100   0.25815    0.07969    0.10543    0.00151      0.06916      0.01183      0.00398      0.06821      0.02085      
26200   0.25904    0.07975    0.10552    0.00176      0.06982      0.01093      0.00363      0.06875      0.02071      
26300   0.25486    0.07856    0.10397    0.00157      0.06872      0.01020      0.00401      0.06780      0.02087      
26400   0.25691    0.07909    0.10462    0.00198      0.06916      0.01031      0.00375      0.06808      0.02015      
26500   0.25596    0.07899    0.10424    0.00167      0.06916      0.00949      0.00498      0.06845      0.02180      
26600   0.25725    0.07933    0.10473    0.00151      0.06910      0.01291      0.00485      0.06845      0.02197      
26700   0.25497    0.07844    0.10366    0.00183      0.06908      0.00979      0.00402      0.06809      0.02103      
26800   0.25399    0.07795    0.10310    0.00132      0.06899      0.01312      0.00507      0.06779      0.02383      
26900   0.25285    0.07755    0.10249    0.00168      0.06925      0.00942      0.00453      0.06848      0.02026      
27000   0.25090    0.07668    0.10181    0.00146      0.06894      0.01003      0.00465      0.06822      0.01965      
27100   0.25211    0.07731    0.10204    0.00211      0.06885      0.00893      0.00461      0.06777      0.02078      
27200   0.25257    0.07733    0.10218    0.00212      0.06919      0.00872      0.00452      0.06826      0.02020      
27300   0.24942    0.07627    0.10093    0.00164      0.06870      0.00943      0.00566      0.06792      0.02063      
27400   0.24700    0.07545    0.09985    0.00140      0.06849      0.00906      0.00494      0.06762      0.02059      
27500   0.24834    0.07585    0.10027    0.00159      0.06888      0.00877      0.00365      0.06791      0.02039      
27600   0.24860    0.07609    0.10017    0.00138      0.06896      0.00999      0.00496      0.06757      0.02176      
27700   0.24920    0.07595    0.10041    0.00205      0.06890      0.00942      0.00469      0.06769      0.02193      
27800   0.24828    0.07556    0.10000    0.00168      0.06899      0.01035      0.00477      0.06814      0.02122      
27900   0.24640    0.07501    0.09917    0.00148      0.06881      0.00959      0.00461      0.06789      0.02230      
28000   0.24568    0.07468    0.09865    0.00159      0.06889      0.00935      0.00506      0.06797      0.02227      
28100   0.24564    0.07454    0.09868    0.00155      0.06903      0.00925      0.00527      0.06765      0.02228      
28200   0.24482    0.07417    0.09803    0.00173      0.06866      0.01114      0.00472      0.06748      0.02254      
28300   0.24177    0.07334    0.09681    0.00161      0.06821      0.00900      0.00389      0.06713      0.02240      
28400   0.24368    0.07384    0.09747    0.00175      0.06886      0.00884      0.00337      0.06774      0.02229      
28500   0.24160    0.07292    0.09666    0.00161      0.06844      0.00984      0.00412      0.06729      0.02030      
28600   0.24049    0.07221    0.09582    0.00151      0.06859      0.01177      0.00352      0.06746      0.02204      
28700   0.23971    0.07201    0.09569    0.00165      0.06812      0.01118      0.00392      0.06690      0.02084      
28800   0.23650    0.07105    0.09447    0.00131      0.06784      0.00913      0.00383      0.06671      0.02065      
28900   0.23909    0.07170    0.09541    0.00162      0.06845      0.00959      0.00416      0.06748      0.02096      
29000   0.23732    0.07120    0.09455    0.00142      0.06821      0.00973      0.00405      0.06719      0.02203      
29100   0.23813    0.07145    0.09486    0.00164      0.06828      0.00948      0.00433      0.06713      0.02002      
29200   0.23770    0.07133    0.09446    0.00148      0.06827      0.01081      0.00435      0.06713      0.02163      
29300   0.23717    0.07097    0.09418    0.00143      0.06847      0.01059      0.00387      0.06767      0.02275      
29400   0.23473    0.07001    0.09314    0.00147      0.06815      0.00979      0.00465      0.06725      0.02141      
29500   0.23555    0.07014    0.09346    0.00166      0.06836      0.00965      0.00424      0.06734      0.02184      
29600   0.23400    0.06931    0.09267    0.00206      0.06815      0.00909      0.00410      0.06721      0.02288      
29700   0.23328    0.06906    0.09237    0.00133      0.06831      0.01104      0.00314      0.06719      0.02374      
29800   0.23297    0.06875    0.09200    0.00170      0.06795      0.01286      0.00417      0.06714      0.02142      
29900   0.23088    0.06813    0.09122    0.00138      0.06831      0.00919      0.00298      0.06729      0.02265      
30000   0.23280    0.06872    0.09205    0.00184      0.06816      0.01019      0.00392      0.06708      0.02182      
30100   0.23232    0.06860    0.09188    0.00182      0.06826      0.00882      0.00390      0.06735      0.02181      
30200   0.23288    0.06873    0.09204    0.00166      0.06848      0.00985      0.00372      0.06767      0.02180      
30300   0.23114    0.06835    0.09118    0.00178      0.06787      0.00977      0.00427      0.06681      0.02077      
30400   0.23044    0.06805    0.09082    0.00146      0.06818      0.00959      0.00275      0.06725      0.02064      
30500   0.22982    0.06781    0.09068    0.00153      0.06788      0.00959      0.00298      0.06690      0.02052      
30600   0.22759    0.06667    0.08949    0.00163      0.06794      0.00929      0.00396      0.06696      0.02244      
30700   0.22776    0.06691    0.08959    0.00148      0.06785      0.00966      0.00358      0.06660      0.02101      
30800   0.22555    0.06590    0.08838    0.00143      0.06791      0.00965      0.00403      0.06675      0.02100      
30900   0.22403    0.06521    0.08790    0.00141      0.06771      0.00904      0.00475      0.06653      0.02166      
31000   0.22617    0.06601    0.08867    0.00143      0.06817      0.00944      0.00469      0.06689      0.01943      
31100   0.22408    0.06543    0.08780    0.00147      0.06750      0.00945      0.00424      0.06610      0.02101      
31200   0.22316    0.06507    0.08729    0.00128      0.06778      0.00868      0.00345      0.06645      0.02145      
31300   0.22464    0.06543    0.08779    0.00151      0.06806      0.00930      0.00424      0.06696      0.02219      
31400   0.22446    0.06520    0.08760    0.00173      0.06797      0.00978      0.00288      0.06679      0.02093      
31500   0.22211    0.06446    0.08669    0.00148      0.06752      0.00974      0.00411      0.06664      0.02130      
31600   0.22358    0.06483    0.08713    0.00137      0.06836      0.00941      0.00530      0.06711      0.02105      
31700   0.22257    0.06451    0.08664    0.00133      0.06806      0.01014      0.00469      0.06667      0.02092      
31800   0.22142    0.06394    0.08609    0.00131      0.06797      0.01055      0.00373      0.06688      0.02002      
31900   0.21979    0.06343    0.08541    0.00128      0.06765      0.01005      0.00341      0.06653      0.02224      
32000   0.21812    0.06287    0.08471    0.00150      0.06733      0.00856      0.00461      0.06639      0.02179      
32100   0.21819    0.06293    0.08458    0.00151      0.06719      0.00990      0.00485      0.06629      0.02244      
32200   0.21801    0.06291    0.08469    0.00149      0.06731      0.00804      0.00504      0.06618      0.02103      
32300   0.21716    0.06284    0.08423    0.00155      0.06701      0.00762      0.00396      0.06626      0.01943      
32400   0.21711    0.06271    0.08419    0.00145      0.06702      0.00869      0.00454      0.06617      0.02218      
32500   0.21765    0.06281    0.08429    0.00134      0.06740      0.00909      0.00475      0.06652      0.02169      
32600   0.21763    0.06280    0.08425    0.00131      0.06695      0.01161      0.00371      0.06608      0.02150      
32700   0.21604    0.06215    0.08348    0.00156      0.06685      0.00998      0.00371      0.06568      0.02086      
32800   0.21556    0.06176    0.08328    0.00142      0.06736      0.00870      0.00440      0.06634      0.02155      
32900   0.21510    0.06157    0.08297    0.00144      0.06734      0.00890      0.00490      0.06625      0.02248      
33000   0.21319    0.06107    0.08217    0.00131      0.06691      0.00865      0.00398      0.06557      0.02203      
33100   0.21333    0.06085    0.08207    0.00145      0.06684      0.01068      0.00412      0.06566      0.02185      
33200   0.21297    0.06092    0.08190    0.00134      0.06686      0.00976      0.00384      0.06597      0.02052      
33300   0.21291    0.06086    0.08168    0.00156      0.06689      0.00953      0.00398      0.06601      0.02124      
33400   0.21251    0.06070    0.08136    0.00194      0.06674      0.00889      0.00470      0.06592      0.02063      
33500   0.21194    0.06060    0.08103    0.00149      0.06694      0.00938      0.00442      0.06628      0.02033      
33600   0.21058    0.06005    0.08034    0.00131      0.06718      0.00852      0.00370      0.06621      0.02001      
33700   0.21031    0.06006    0.08023    0.00131      0.06700      0.00855      0.00465      0.06602      0.02147      
33800   0.21049    0.06012    0.08040    0.00140      0.06690      0.00836      0.00408      0.06592      0.02006      
33900   0.21055    0.05998    0.08022    0.00185      0.06680      0.00843      0.00353      0.06594      0.02012      
34000   0.20947    0.05954    0.07976    0.00128      0.06717      0.00859      0.00381      0.06618      0.02188      
34100   0.20848    0.05926    0.07937    0.00129      0.06682      0.00869      0.00395      0.06609      0.02008      
34200   0.20957    0.05971    0.07963    0.00142      0.06686      0.00973      0.00407      0.06587      0.02065      
34300   0.20810    0.05903    0.07892    0.00148      0.06688      0.00892      0.00357      0.06611      0.02020      
34400   0.20804    0.05894    0.07890    0.00165      0.06678      0.00891      0.00392      0.06582      0.01969      
34500   0.20853    0.05910    0.07914    0.00153      0.06694      0.00916      0.00433      0.06586      0.02106      
34600   0.20824    0.05908    0.07898    0.00160      0.06693      0.00832      0.00389      0.06598      0.01915      
34700   0.20817    0.05889    0.07892    0.00183      0.06664      0.00950      0.00431      0.06574      0.01952      
34800   0.20687    0.05833    0.07832    0.00159      0.06686      0.00886      0.00378      0.06570      0.01880      
34900   0.20672    0.05804    0.07811    0.00146      0.06743      0.00842      0.00353      0.06642      0.01917      
35000   0.20595    0.05786    0.07771    0.00137      0.06719      0.00911      0.00434      0.06620      0.02029      
35100   0.20623    0.05795    0.07771    0.00150      0.06707      0.01001      0.00380      0.06609      0.02055      
35200   0.20498    0.05771    0.07727    0.00148      0.06690      0.00810      0.00421      0.06574      0.01952      
35300   0.20428    0.05748    0.07693    0.00131      0.06682      0.00878      0.00409      0.06590      0.02001      
35400   0.20533    0.05767    0.07739    0.00185      0.06671      0.00857      0.00371      0.06571      0.01955      
35500   0.20413    0.05720    0.07683    0.00143      0.06683      0.00917      0.00276      0.06578      0.01915      
35600   0.20447    0.05708    0.07691    0.00167      0.06716      0.00830      0.00417      0.06608      0.02037      
35700   0.20489    0.05734    0.07714    0.00161      0.06698      0.00913      0.00355      0.06596      0.02033      
35800   0.20344    0.05700    0.07670    0.00151      0.06662      0.00807      0.00390      0.06551      0.01969      
35900   0.20139    0.05631    0.07582    0.00144      0.06620      0.00807      0.00442      0.06509      0.01959      
36000   0.20106    0.05597    0.07542    0.00149      0.06639      0.00894      0.00362      0.06539      0.02073      
36100   0.20094    0.05607    0.07544    0.00142      0.06634      0.00835      0.00360      0.06550      0.01947      
36200   0.20027    0.05580    0.07505    0.00137      0.06636      0.00846      0.00423      0.06536      0.01962      
36300   0.19978    0.05555    0.07488    0.00137      0.06610      0.00938      0.00295      0.06502      0.02050      
36400   0.20056    0.05573    0.07514    0.00177      0.06617      0.00867      0.00395      0.06529      0.01898      
36500   0.19967    0.05549    0.07477    0.00135      0.06635      0.00854      0.00333      0.06545      0.01995      
36600   0.19932    0.05536    0.07455    0.00155      0.06619      0.00836      0.00323      0.06516      0.01893      
36700   0.19912    0.05502    0.07450    0.00136      0.06638      0.00930      0.00364      0.06528      0.02196      
36800   0.19792    0.05445    0.07394    0.00135      0.06635      0.00912      0.00245      0.06545      0.01998      
36900   0.19673    0.05406    0.07357    0.00128      0.06611      0.00856      0.00317      0.06531      0.02051      
37000   0.19679    0.05406    0.07343    0.00131      0.06613      0.00928      0.00362      0.06529      0.02048      
37100   0.19594    0.05378    0.07305    0.00131      0.06608      0.00856      0.00354      0.06527      0.02135      
37200   0.19621    0.05393    0.07304    0.00138      0.06608      0.00894      0.00333      0.06520      0.01958      
37300   0.19549    0.05384    0.07276    0.00139      0.06584      0.00832      0.00321      0.06473      0.01892      
37400   0.19572    0.05387    0.07276    0.00133      0.06589      0.00932      0.00326      0.06484      0.02044      
37500   0.19686    0.05418    0.07306    0.00134      0.06602      0.01136      0.00363      0.06519      0.02376      
37600   0.19667    0.05423    0.07312    0.00149      0.06591      0.00961      0.00352      0.06501      0.02003      
37700   0.19689    0.05414    0.07312    0.00139      0.06655      0.00840      0.00381      0.06556      0.01980      
37800   0.19561    0.05368    0.07267    0.00137      0.06624      0.00829      0.00399      0.06525      0.01900      
37900   0.19569    0.05384    0.07257    0.00134      0.06612      0.00910      0.00346      0.06529      0.02053      
38000   0.19374    0.05303    0.07184    0.00134      0.06581      0.00861      0.00360      0.06488      0.01895      
38100   0.19461    0.05341    0.07206    0.00176      0.06575      0.00816      0.00388      0.06473      0.01944      
38200   0.19358    0.05288    0.07172    0.00142      0.06575      0.00906      0.00331      0.06462      0.01821      
38300   0.19311    0.05272    0.07139    0.00143      0.06580      0.00892      0.00333      0.06475      0.02024      
38400   0.19179    0.05203    0.07074    0.00145      0.06574      0.00913      0.00358      0.06482      0.01891      
38500   0.19079    0.05175    0.07040    0.00148      0.06529      0.00932      0.00458      0.06451      0.01941      
38600   0.19055    0.05165    0.07036    0.00133      0.06541      0.00907      0.00363      0.06430      0.01868      
38700   0.18978    0.05148    0.06995    0.00130      0.06520      0.00927      0.00402      0.06437      0.01973      
38800   0.19050    0.05178    0.07022    0.00128      0.06561      0.00807      0.00410      0.06487      0.01889      
38900   0.19123    0.05193    0.07050    0.00129      0.06581      0.00852      0.00286      0.06481      0.01784      
39000   0.19212    0.05228    0.07079    0.00142      0.06572      0.00954      0.00282      0.06490      0.01817      
39100   0.19052    0.05195    0.07021    0.00125      0.06540      0.00855      0.00377      0.06432      0.01848      
39200   0.19012    0.05173    0.06999    0.00139      0.06532      0.00842      0.00358      0.06435      0.01900      
39300   0.19036    0.05180    0.07008    0.00140      0.06548      0.00799      0.00368      0.06459      0.01948      
39400   0.19029    0.05155    0.06991    0.00135      0.06556      0.00962      0.00416      0.06481      0.01897      
39500   0.18990    0.05140    0.06980    0.00134      0.06557      0.00892      0.00366      0.06474      0.01860      
39600   0.18912    0.05102    0.06929    0.00153      0.06562      0.00828      0.00401      0.06483      0.01939      
39700   0.18924    0.05100    0.06952    0.00143      0.06560      0.00849      0.00426      0.06467      0.01921      
39800   0.18882    0.05084    0.06928    0.00127      0.06571      0.00857      0.00378      0.06494      0.02004      
39900   0.19005    0.05116    0.06978    0.00169      0.06558      0.00922      0.00405      0.06446      0.01950      
40000   0.18910    0.05098    0.06927    0.00149      0.06568      0.00840      0.00385      0.06454      0.01853      
40100   0.18980    0.05127    0.06965    0.00179      0.06550      0.00797      0.00396      0.06469      0.01777      
40200   0.18932    0.05112    0.06938    0.00137      0.06563      0.00908      0.00394      0.06454      0.01829      
40300   0.18924    0.05102    0.06933    0.00151      0.06551      0.00934      0.00401      0.06472      0.01902      
40400   0.18822    0.05079    0.06889    0.00142      0.06545      0.00834      0.00446      0.06447      0.01766      
40500   0.18724    0.05038    0.06840    0.00138      0.06547      0.00803      0.00341      0.06458      0.01731      
40600   0.18754    0.05047    0.06848    0.00157      0.06547      0.00782      0.00326      0.06443      0.01821      
40700   0.18761    0.05044    0.06855    0.00135      0.06543      0.00924      0.00400      0.06422      0.01957      
40800   0.18664    0.05002    0.06798    0.00149      0.06556      0.00796      0.00395      0.06460      0.01872      
40900   0.18697    0.05017    0.06827    0.00142      0.06550      0.00805      0.00323      0.06461      0.01860      
41000   0.18674    0.05009    0.06808    0.00153      0.06535      0.00851      0.00399      0.06408      0.01847      
41100   0.18593    0.04978    0.06770    0.00133      0.06519      0.00961      0.00333      0.06421      0.01947      
41200   0.18517    0.04940    0.06731    0.00128      0.06515      0.01013      0.00382      0.06421      0.01913      
41300   0.18385    0.04907    0.06683    0.00132      0.06500      0.00807      0.00348      0.06409      0.01828      
41400   0.18439    0.04925    0.06696    0.00141      0.06500      0.00890      0.00397      0.06424      0.01859      
41500   0.18430    0.04924    0.06700    0.00146      0.06507      0.00766      0.00407      0.06443      0.01887      
41600   0.18455    0.04933    0.06701    0.00142      0.06515      0.00826      0.00336      0.06438      0.01809      
41700   0.18479    0.04968    0.06719    0.00127      0.06503      0.00808      0.00322      0.06414      0.01800      
41800   0.18477    0.04948    0.06696    0.00144      0.06526      0.00814      0.00319      0.06423      0.01826      
41900   0.18403    0.04911    0.06658    0.00161      0.06511      0.00808      0.00409      0.06429      0.01773      
42000   0.18320    0.04893    0.06639    0.00131      0.06494      0.00816      0.00301      0.06403      0.01658      
42100   0.18460    0.04947    0.06696    0.00132      0.06512      0.00869      0.00385      0.06408      0.01815      
42200   0.18392    0.04908    0.06666    0.00146      0.06515      0.00782      0.00384      0.06406      0.01822      
42300   0.18354    0.04893    0.06638    0.00136      0.06525      0.00813      0.00328      0.06418      0.01699      
42400   0.18313    0.04877    0.06622    0.00126      0.06526      0.00810      0.00391      0.06423      0.01915      
42500   0.18298    0.04873    0.06610    0.00137      0.06520      0.00793      0.00358      0.06414      0.01846      
42600   0.18177    0.04824    0.06555    0.00121      0.06497      0.00901      0.00332      0.06382      0.01774      
42700   0.18098    0.04811    0.06527    0.00118      0.06471      0.00854      0.00306      0.06378      0.01751      
42800   0.18111    0.04790    0.06531    0.00154      0.06482      0.00769      0.00331      0.06388      0.01808      
42900   0.18106    0.04792    0.06527    0.00161      0.06450      0.00879      0.00311      0.06372      0.01777      
43000   0.18121    0.04803    0.06527    0.00132      0.06491      0.00835      0.00304      0.06391      0.01781      
43100   0.18012    0.04784    0.06488    0.00118      0.06471      0.00755      0.00369      0.06392      0.01788      
43200   0.18054    0.04779    0.06501    0.00152      0.06474      0.00742      0.00294      0.06391      0.01629      
43300   0.18071    0.04783    0.06507    0.00142      0.06463      0.00875      0.00351      0.06365      0.01759      
43400   0.17944    0.04734    0.06458    0.00130      0.06451      0.00854      0.00327      0.06353      0.01806      
43500   0.17885    0.04684    0.06419    0.00144      0.06449      0.00943      0.00313      0.06341      0.01733      
43600   0.17963    0.04728    0.06458    0.00129      0.06490      0.00791      0.00293      0.06400      0.01725      
43700   0.17910    0.04709    0.06442    0.00134      0.06456      0.00842      0.00357      0.06375      0.01778      
43800   0.17891    0.04716    0.06434    0.00126      0.06457      0.00790      0.00353      0.06369      0.01770      
43900   0.17869    0.04711    0.06422    0.00126      0.06444      0.00822      0.00345      0.06387      0.01751      
44000   0.17829    0.04687    0.06402    0.00125      0.06456      0.00799      0.00297      0.06351      0.01725      
44100   0.17771    0.04663    0.06376    0.00122      0.06440      0.00848      0.00309      0.06362      0.01644      
44200   0.17683    0.04639    0.06340    0.00131      0.06407      0.00832      0.00292      0.06325      0.01676      
44300   0.17671    0.04615    0.06321    0.00131      0.06437      0.00841      0.00281      0.06352      0.01707      
44400   0.17806    0.04653    0.06386    0.00147      0.06446      0.00869      0.00257      0.06354      0.01659      
44500   0.17841    0.04685    0.06401    0.00133      0.06458      0.00820      0.00319      0.06367      0.01686      
44600   0.17767    0.04655    0.06356    0.00129      0.06438      0.00945      0.00325      0.06361      0.01848      
44700   0.17703    0.04635    0.06334    0.00150      0.06425      0.00802      0.00318      0.06336      0.01619      
44800   0.17717    0.04634    0.06341    0.00140      0.06452      0.00749      0.00390      0.06362      0.01686      
44900   0.17712    0.04614    0.06332    0.00149      0.06458      0.00801      0.00420      0.06362      0.01776      
45000   0.17645    0.04591    0.06301    0.00135      0.06432      0.00927      0.00409      0.06356      0.01769      
45100   0.17570    0.04558    0.06265    0.00138      0.06439      0.00848      0.00407      0.06369      0.01691      
45200   0.17541    0.04554    0.06262    0.00128      0.06431      0.00828      0.00389      0.06369      0.01793      
45300   0.17486    0.04531    0.06232    0.00125      0.06437      0.00806      0.00327      0.06348      0.01809      
45400   0.17510    0.04540    0.06242    0.00121      0.06447      0.00801      0.00314      0.06365      0.01680      
45500   0.17546    0.04547    0.06250    0.00129      0.06450      0.00848      0.00319      0.06371      0.01745      
45600   0.17524    0.04544    0.06241    0.00128      0.06428      0.00914      0.00345      0.06365      0.01762      
45700   0.17455    0.04513    0.06221    0.00131      0.06432      0.00788      0.00327      0.06350      0.01779      
45800   0.17437    0.04508    0.06195    0.00117      0.06449      0.00839      0.00312      0.06375      0.01809      
45900   0.17407    0.04484    0.06186    0.00112      0.06459      0.00832      0.00421      0.06399      0.01880      
46000   0.17445    0.04502    0.06192    0.00123      0.06457      0.00860      0.00344      0.06369      0.01741      
46100   0.17404    0.04485    0.06173    0.00135      0.06444      0.00836      0.00334      0.06365      0.01726      
46200   0.17368    0.04473    0.06176    0.00114      0.06444      0.00803      0.00334      0.06384      0.01682      
46300   0.17302    0.04454    0.06147    0.00110      0.06424      0.00829      0.00343      0.06343      0.01803      
46400   0.17281    0.04442    0.06133    0.00132      0.06412      0.00811      0.00426      0.06348      0.01768      
46500   0.17316    0.04437    0.06143    0.00143      0.06427      0.00835      0.00380      0.06354      0.01784      
46600   0.17251    0.04421    0.06122    0.00121      0.06429      0.00791      0.00267      0.06370      0.01707      
46700   0.17317    0.04449    0.06148    0.00126      0.06428      0.00834      0.00390      0.06340      0.01873      
46800   0.17284    0.04422    0.06133    0.00133      0.06432      0.00819      0.00371      0.06355      0.01831      
46900   0.17307    0.04444    0.06141    0.00120      0.06428      0.00872      0.00418      0.06344      0.01879      
47000   0.17298    0.04411    0.06130    0.00117      0.06452      0.00942      0.00354      0.06368      0.01770      
47100   0.17228    0.04410    0.06099    0.00119      0.06418      0.00910      0.00366      0.06345      0.01869      
47200   0.17330    0.04452    0.06142    0.00118      0.06459      0.00797      0.00450      0.06389      0.01799      
47300   0.17284    0.04436    0.06118    0.00137      0.06433      0.00798      0.00325      0.06348      0.01723      
47400   0.17280    0.04443    0.06123    0.00128      0.06424      0.00806      0.00404      0.06343      0.01771      
47500   0.17237    0.04407    0.06089    0.00128      0.06444      0.00846      0.00326      0.06370      0.01743      
47600   0.17161    0.04396    0.06072    0.00119      0.06420      0.00778      0.00433      0.06344      0.01756      
47700   0.17075    0.04347    0.06030    0.00141      0.06398      0.00791      0.00389      0.06309      0.01732      
47800   0.17041    0.04333    0.06012    0.00117      0.06412      0.00831      0.00403      0.06335      0.01807      
47900   0.17084    0.04349    0.06021    0.00131      0.06404      0.00896      0.00341      0.06336      0.01666      
48000   0.16997    0.04325    0.05990    0.00125      0.06402      0.00779      0.00334      0.06307      0.01710      
48100   0.17034    0.04338    0.05998    0.00125      0.06423      0.00753      0.00306      0.06327      0.01791      
48200   0.16983    0.04311    0.05976    0.00132      0.06408      0.00783      0.00276      0.06310      0.01778      
48300   0.16977    0.04303    0.05965    0.00125      0.06404      0.00901      0.00285      0.06316      0.01760      
48400   0.16941    0.04291    0.05954    0.00123      0.06387      0.00931      0.00385      0.06306      0.01884      
48500   0.16912    0.04292    0.05946    0.00124      0.06391      0.00794      0.00310      0.06307      0.01684      
48600   0.16869    0.04264    0.05928    0.00116      0.06405      0.00784      0.00327      0.06294      0.01696      
48700   0.16848    0.04254    0.05914    0.00125      0.06407      0.00741      0.00312      0.06321      0.01691      
48800   0.16808    0.04231    0.05903    0.00127      0.06387      0.00798      0.00322      0.06313      0.01636      
48900   0.16713    0.04187    0.05859    0.00128      0.06390      0.00746      0.00296      0.06323      0.01669      
49000   0.16756    0.04202    0.05874    0.00146      0.06371      0.00818      0.00329      0.06308      0.01779      
49100   0.16724    0.04187    0.05851    0.00131      0.06405      0.00751      0.00256      0.06341      0.01705      
49200   0.16701    0.04172    0.05850    0.00121      0.06376      0.00911      0.00283      0.06272      0.01729      
49300   0.16689    0.04187    0.05841    0.00130      0.06367      0.00817      0.00300      0.06277      0.01791      
49400   0.16596    0.04148    0.05802    0.00122      0.06378      0.00724      0.00311      0.06296      0.01674      
49500   0.16596    0.04145    0.05795    0.00131      0.06363      0.00806      0.00292      0.06278      0.01697      
49600   0.16631    0.04173    0.05812    0.00122      0.06376      0.00745      0.00310      0.06285      0.01699      
49700   0.16692    0.04187    0.05832    0.00139      0.06384      0.00749      0.00291      0.06301      0.01697      
49800   0.16685    0.04170    0.05821    0.00131      0.06388      0.00873      0.00248      0.06291      0.01780      
49900   0.16588    0.04145    0.05791    0.00118      0.06377      0.00788      0.00270      0.06292      0.01736      
50000   0.16563    0.04138    0.05785    0.00130      0.06367      0.00717      0.00252      0.06295      0.01632      
50100   0.16558    0.04130    0.05777    0.00122      0.06364      0.00822      0.00320      0.06286      0.01759      
50200   0.16485    0.04097    0.05743    0.00149      0.06355      0.00707      0.00333      0.06274      0.01665      
50300   0.16567    0.04133    0.05772    0.00120      0.06367      0.00875      0.00272      0.06278      0.01772      
50400   0.16520    0.04108    0.05754    0.00147      0.06366      0.00728      0.00278      0.06289      0.01645      
50500   0.16415    0.04068    0.05707    0.00135      0.06363      0.00705      0.00300      0.06262      0.01663      
50600   0.16376    0.04034    0.05686    0.00121      0.06359      0.00878      0.00298      0.06281      0.01791      
50700   0.16388    0.04041    0.05684    0.00139      0.06369      0.00775      0.00288      0.06295      0.01719      
50800   0.16388    0.04045    0.05681    0.00130      0.06371      0.00807      0.00319      0.06297      0.01854      
50900   0.16314    0.04029    0.05650    0.00127      0.06357      0.00758      0.00398      0.06293      0.01843      
51000   0.16286    0.04015    0.05650    0.00120      0.06361      0.00701      0.00353      0.06285      0.01781      
51100   0.16356    0.04036    0.05664    0.00116      0.06374      0.00834      0.00314      0.06300      0.01937      
51200   0.16299    0.04026    0.05649    0.00128      0.06354      0.00714      0.00326      0.06279      0.01813      
51300   0.16360    0.04040    0.05663    0.00130      0.06367      0.00801      0.00331      0.06286      0.01846      
51400   0.16334    0.04042    0.05658    0.00119      0.06357      0.00791      0.00337      0.06277      0.01993      
51500   0.16369    0.04050    0.05669    0.00130      0.06367      0.00763      0.00379      0.06299      0.01915      
51600   0.16306    0.04023    0.05634    0.00133      0.06351      0.00823      0.00334      0.06268      0.01899      
51700   0.16258    0.04003    0.05627    0.00132      0.06350      0.00729      0.00303      0.06261      0.01798      
51800   0.16247    0.03987    0.05604    0.00122      0.06362      0.00861      0.00396      0.06277      0.01956      
51900   0.16237    0.03988    0.05604    0.00129      0.06371      0.00723      0.00370      0.06285      0.01901      
52000   0.16280    0.03999    0.05621    0.00130      0.06359      0.00855      0.00386      0.06284      0.01862      
52100   0.16202    0.03985    0.05592    0.00123      0.06353      0.00742      0.00329      0.06281      0.01805      
52200   0.16219    0.03983    0.05587    0.00122      0.06358      0.00840      0.00327      0.06281      0.01896      
52300   0.16134    0.03946    0.05551    0.00124      0.06337      0.00875      0.00310      0.06266      0.02058      
52400   0.16124    0.03941    0.05551    0.00132      0.06346      0.00774      0.00381      0.06268      0.01886      
52500   0.16050    0.03921    0.05519    0.00117      0.06345      0.00737      0.00353      0.06263      0.01845      
52600   0.16091    0.03939    0.05527    0.00125      0.06353      0.00729      0.00362      0.06286      0.01816      
52700   0.16051    0.03920    0.05514    0.00127      0.06333      0.00782      0.00338      0.06266      0.01877      
52800   0.16049    0.03911    0.05505    0.00141      0.06335      0.00784      0.00329      0.06264      0.01845      
52900   0.15960    0.03879    0.05470    0.00132      0.06328      0.00755      0.00327      0.06257      0.01856      
53000   0.15897    0.03852    0.05440    0.00123      0.06317      0.00829      0.00367      0.06244      0.01942      
53100   0.15911    0.03842    0.05443    0.00142      0.06325      0.00793      0.00413      0.06253      0.01826      
53200   0.15906    0.03856    0.05441    0.00142      0.06318      0.00739      0.00411      0.06234      0.01858      
53300   0.15929    0.03861    0.05454    0.00125      0.06333      0.00784      0.00420      0.06275      0.01887      
53400   0.15918    0.03847    0.05448    0.00131      0.06336      0.00777      0.00403      0.06256      0.01882      
53500   0.15849    0.03839    0.05419    0.00134      0.06307      0.00750      0.00325      0.06239      0.01787      
53600   0.15836    0.03842    0.05412    0.00126      0.06312      0.00720      0.00368      0.06233      0.01863      
53700   0.15853    0.03834    0.05411    0.00125      0.06310      0.00866      0.00320      0.06232      0.02001      
53800   0.15909    0.03857    0.05441    0.00136      0.06323      0.00760      0.00303      0.06240      0.01750      
53900   0.15930    0.03868    0.05442    0.00126      0.06338      0.00784      0.00320      0.06241      0.01725      
54000   0.15911    0.03853    0.05448    0.00129      0.06324      0.00787      0.00382      0.06254      0.01813      
54100   0.15848    0.03837    0.05419    0.00130      0.06311      0.00759      0.00260      0.06239      0.01760      
54200   0.15848    0.03830    0.05417    0.00135      0.06304      0.00801      0.00341      0.06235      0.01940      
54300   0.15729    0.03790    0.05370    0.00127      0.06296      0.00730      0.00330      0.06224      0.01818      
54400   0.15766    0.03798    0.05382    0.00127      0.06315      0.00724      0.00369      0.06245      0.01852      
54500   0.15794    0.03806    0.05383    0.00132      0.06324      0.00743      0.00308      0.06258      0.01850      
54600   0.15786    0.03800    0.05385    0.00129      0.06315      0.00786      0.00252      0.06234      0.01857      
54700   0.15799    0.03806    0.05388    0.00126      0.06337      0.00706      0.00277      0.06264      0.01828      
54800   0.15822    0.03824    0.05397    0.00117      0.06328      0.00778      0.00244      0.06248      0.01871      
54900   0.15790    0.03801    0.05379    0.00127      0.06321      0.00809      0.00273      0.06252      0.01979      
55000   0.15781    0.03804    0.05381    0.00122      0.06328      0.00736      0.00290      0.06263      0.01844      
55100   0.15804    0.03828    0.05393    0.00129      0.06297      0.00782      0.00252      0.06232      0.01824      
55200   0.15794    0.03805    0.05383    0.00117      0.06337      0.00764      0.00322      0.06242      0.01851      
55300   0.15785    0.03819    0.05385    0.00122      0.06304      0.00781      0.00282      0.06223      0.01786      
55400   0.15790    0.03824    0.05379    0.00113      0.06299      0.00874      0.00231      0.06222      0.01856      
55500   0.15710    0.03778    0.05350    0.00126      0.06303      0.00762      0.00281      0.06224      0.01811      
55600   0.15676    0.03754    0.05331    0.00128      0.06284      0.00889      0.00309      0.06205      0.01879      
55700   0.15603    0.03725    0.05307    0.00125      0.06291      0.00778      0.00280      0.06216      0.01854      
55800   0.15615    0.03729    0.05308    0.00123      0.06297      0.00788      0.00307      0.06229      0.01806      
55900   0.15650    0.03744    0.05329    0.00131      0.06305      0.00707      0.00248      0.06240      0.01690      
56000   0.15630    0.03731    0.05319    0.00113      0.06319      0.00737      0.00261      0.06241      0.01752      
56100   0.15647    0.03742    0.05324    0.00123      0.06310      0.00739      0.00288      0.06232      0.01777      
56200   0.15625    0.03738    0.05319    0.00120      0.06294      0.00774      0.00283      0.06221      0.01768      
56300   0.15628    0.03734    0.05319    0.00122      0.06300      0.00768      0.00253      0.06221      0.01757      
56400   0.15606    0.03721    0.05305    0.00125      0.06288      0.00834      0.00290      0.06226      0.01827      
56500   0.15548    0.03692    0.05286    0.00119      0.06302      0.00748      0.00295      0.06227      0.01804      
56600   0.15525    0.03688    0.05272    0.00121      0.06295      0.00744      0.00346      0.06221      0.01784      
56700   0.15513    0.03685    0.05265    0.00126      0.06288      0.00744      0.00290      0.06215      0.01710      
56800   0.15468    0.03670    0.05248    0.00117      0.06277      0.00779      0.00280      0.06214      0.01836      
56900   0.15462    0.03673    0.05242    0.00119      0.06281      0.00735      0.00320      0.06225      0.01739      
57000   0.15417    0.03642    0.05221    0.00124      0.06284      0.00734      0.00327      0.06225      0.01706      
57100   0.15431    0.03654    0.05230    0.00127      0.06263      0.00786      0.00300      0.06209      0.01776      
57200   0.15410    0.03647    0.05220    0.00129      0.06269      0.00724      0.00338      0.06219      0.01783      
57300   0.15378    0.03629    0.05210    0.00118      0.06277      0.00721      0.00341      0.06217      0.01811      
57400   0.15463    0.03659    0.05236    0.00125      0.06298      0.00728      0.00382      0.06256      0.01837      
57500   0.15408    0.03634    0.05217    0.00124      0.06284      0.00746      0.00335      0.06224      0.01761      
57600   0.15369    0.03612    0.05196    0.00125      0.06292      0.00718      0.00360      0.06232      0.01752      
57700   0.15357    0.03617    0.05196    0.00114      0.06279      0.00752      0.00320      0.06211      0.01782      
57800   0.15286    0.03586    0.05166    0.00126      0.06262      0.00725      0.00343      0.06197      0.01788      
57900   0.15363    0.03610    0.05193    0.00123      0.06293      0.00729      0.00417      0.06235      0.01832      
58000   0.15357    0.03609    0.05193    0.00129      0.06263      0.00811      0.00367      0.06191      0.01916      
58100   0.15332    0.03606    0.05190    0.00117      0.06268      0.00751      0.00391      0.06211      0.01847      
58200   0.15300    0.03584    0.05170    0.00136      0.06261      0.00745      0.00416      0.06196      0.01809      
58300   0.15228    0.03556    0.05143    0.00119      0.06251      0.00794      0.00352      0.06184      0.01824      
58400   0.15189    0.03547    0.05126    0.00118      0.06254      0.00719      0.00377      0.06188      0.01845      
58500   0.15230    0.03548    0.05134    0.00128      0.06267      0.00763      0.00365      0.06208      0.01782      
58600   0.15220    0.03538    0.05124    0.00125      0.06268      0.00826      0.00367      0.06200      0.01791      
58700   0.15214    0.03529    0.05127    0.00140      0.06268      0.00749      0.00314      0.06202      0.01802      
58800   0.15156    0.03526    0.05110    0.00113      0.06253      0.00770      0.00380      0.06198      0.01814      
58900   0.15193    0.03535    0.05114    0.00131      0.06256      0.00780      0.00336      0.06205      0.01818      
59000   0.15176    0.03539    0.05113    0.00120      0.06251      0.00760      0.00283      0.06192      0.01794      
59100   0.15163    0.03528    0.05104    0.00116      0.06264      0.00754      0.00348      0.06208      0.01849      
59200   0.15212    0.03554    0.05116    0.00142      0.06257      0.00714      0.00392      0.06208      0.01815      
59300   0.15174    0.03546    0.05107    0.00123      0.06256      0.00709      0.00284      0.06187      0.01732      
59400   0.15162    0.03536    0.05105    0.00123      0.06248      0.00749      0.00338      0.06194      0.01842      
59500   0.15181    0.03548    0.05110    0.00120      0.06263      0.00703      0.00304      0.06193      0.01763      
59600   0.15205    0.03553    0.05113    0.00134      0.06249      0.00779      0.00340      0.06193      0.01816      
59700   0.15136    0.03534    0.05084    0.00119      0.06249      0.00746      0.00322      0.06185      0.01792      
59800   0.15097    0.03515    0.05074    0.00119      0.06246      0.00718      0.00334      0.06176      0.01814      
59900   0.15093    0.03501    0.05070    0.00131      0.06245      0.00731      0.00337      0.06167      0.01823      
60000   0.15032    0.03463    0.05031    0.00121      0.06246      0.00853      0.00332      0.06173      0.01739      
60100   0.15028    0.03469    0.05035    0.00128      0.06248      0.00744      0.00312      0.06184      0.01742      
60200   0.14990    0.03441    0.05012    0.00122      0.06264      0.00754      0.00298      0.06201      0.01734      
60300   0.14976    0.03437    0.05001    0.00126      0.06261      0.00755      0.00318      0.06203      0.01858      
60400   0.14931    0.03427    0.04988    0.00116      0.06241      0.00798      0.00269      0.06173      0.01750      
60500   0.14966    0.03448    0.05001    0.00131      0.06239      0.00735      0.00299      0.06180      0.01682      
60600   0.14977    0.03454    0.05001    0.00124      0.06244      0.00770      0.00318      0.06180      0.01757      
60700   0.14983    0.03457    0.05001    0.00117      0.06258      0.00749      0.00313      0.06186      0.01733      
60800   0.15022    0.03453    0.05022    0.00133      0.06270      0.00721      0.00308      0.06195      0.01760      
60900   0.15000    0.03450    0.05010    0.00118      0.06260      0.00813      0.00301      0.06199      0.01777      
61000   0.14957    0.03430    0.04997    0.00114      0.06263      0.00764      0.00296      0.06187      0.01733      
61100   0.14896    0.03400    0.04972    0.00121      0.06251      0.00762      0.00275      0.06184      0.01732      
61200   0.14924    0.03408    0.04976    0.00130      0.06256      0.00768      0.00344      0.06192      0.01832      
61300   0.14939    0.03412    0.04982    0.00142      0.06253      0.00754      0.00294      0.06186      0.01790      
61400   0.14866    0.03391    0.04961    0.00118      0.06254      0.00714      0.00289      0.06172      0.01721      
61500   0.14861    0.03380    0.04954    0.00123      0.06257      0.00730      0.00322      0.06186      0.01787      
61600   0.14848    0.03385    0.04950    0.00117      0.06251      0.00723      0.00302      0.06189      0.01750      
61700   0.14860    0.03395    0.04953    0.00119      0.06251      0.00706      0.00264      0.06183      0.01783      
61800   0.14911    0.03409    0.04965    0.00130      0.06259      0.00742      0.00234      0.06214      0.01716      
61900   0.14860    0.03401    0.04947    0.00120      0.06240      0.00754      0.00253      0.06171      0.01662      
62000   0.14875    0.03412    0.04954    0.00130      0.06239      0.00700      0.00256      0.06184      0.01695      
62100   0.14838    0.03393    0.04932    0.00122      0.06244      0.00733      0.00267      0.06188      0.01717      
62200   0.14851    0.03399    0.04931    0.00123      0.06255      0.00713      0.00275      0.06197      0.01682      
62300   0.14855    0.03405    0.04933    0.00122      0.06241      0.00769      0.00271      0.06170      0.01701      
62400   0.14870    0.03398    0.04943    0.00121      0.06260      0.00744      0.00290      0.06181      0.01723      
62500   0.14869    0.03405    0.04941    0.00119      0.06262      0.00714      0.00276      0.06195      0.01739      
62600   0.14846    0.03402    0.04929    0.00115      0.06255      0.00728      0.00295      0.06173      0.01816      
62700   0.14837    0.03395    0.04927    0.00126      0.06244      0.00732      0.00291      0.06171      0.01760      
[...]
30800   0.10132    0.01180    0.02839    0.00100      0.05872      0.00706      0.00315      0.05799      0.01583      
30900   0.10132    0.01180    0.02839    0.00100      0.05872      0.00704      0.00319      0.05798      0.01582      
31000   0.10131    0.01179    0.02839    0.00100      0.05872      0.00704      0.00318      0.05797      0.01578      
31100   0.10130    0.01179    0.02838    0.00101      0.05871      0.00703      0.00311      0.05797      0.01577      
31200   0.10129    0.01179    0.02838    0.00100      0.05871      0.00704      0.00313      0.05796      0.01583      
31300   0.10129    0.01179    0.02838    0.00101      0.05871      0.00702      0.00316      0.05796      0.01583      
31400   0.10128    0.01179    0.02837    0.00100      0.05871      0.00704      0.00312      0.05797      0.01578      
31500   0.10127    0.01178    0.02837    0.00100      0.05872      0.00702      0.00315      0.05797      0.01565      
31600   0.10127    0.01178    0.02837    0.00100      0.05872      0.00702      0.00317      0.05797      0.01575      
31700   0.10126    0.01177    0.02836    0.00100      0.05872      0.00704      0.00310      0.05796      0.01568      
31800   0.10125    0.01177    0.02836    0.00100      0.05872      0.00703      0.00321      0.05797      0.01581      
31900   0.10124    0.01176    0.02836    0.00101      0.05871      0.00702      0.00312      0.05796      0.01572      
32000   0.10123    0.01175    0.02835    0.00100      0.05872      0.00704      0.00317      0.05796      0.01577      
32100   0.10122    0.01175    0.02835    0.00100      0.05872      0.00704      0.00314      0.05796      0.01576      
32200   0.10121    0.01175    0.02834    0.00100      0.05871      0.00703      0.00317      0.05795      0.01572      
32300   0.10121    0.01175    0.02834    0.00101      0.05871      0.00702      0.00318      0.05795      0.01578      
32400   0.10120    0.01174    0.02834    0.00100      0.05871      0.00704      0.00317      0.05795      0.01580      
32500   0.10120    0.01174    0.02834    0.00101      0.05871      0.00702      0.00309      0.05795      0.01567      
32600   0.10119    0.01174    0.02833    0.00100      0.05871      0.00703      0.00313      0.05796      0.01573      
32700   0.10118    0.01174    0.02833    0.00101      0.05870      0.00702      0.00312      0.05796      0.01566      
32800   0.10117    0.01173    0.02833    0.00100      0.05871      0.00703      0.00313      0.05795      0.01572      
32900   0.10116    0.01173    0.02832    0.00100      0.05871      0.00703      0.00314      0.05795      0.01568      
33000   0.10116    0.01172    0.02832    0.00100      0.05871      0.00703      0.00316      0.05796      0.01575      
33100   0.10115    0.01172    0.02831    0.00100      0.05871      0.00703      0.00305      0.05796      0.01564      
33200   0.10114    0.01172    0.02830    0.00100      0.05871      0.00704      0.00315      0.05796      0.01574      
33300   0.10114    0.01172    0.02830    0.00100      0.05870      0.00704      0.00312      0.05795      0.01568      
33400   0.10113    0.01172    0.02830    0.00100      0.05870      0.00704      0.00320      0.05795      0.01581      
33500   0.10112    0.01171    0.02830    0.00100      0.05870      0.00703      0.00311      0.05795      0.01574      
33600   0.10111    0.01171    0.02829    0.00100      0.05870      0.00705      0.00320      0.05794      0.01583      
33700   0.10111    0.01171    0.02829    0.00101      0.05869      0.00704      0.00316      0.05794      0.01579      
33800   0.10110    0.01170    0.02829    0.00100      0.05870      0.00703      0.00315      0.05796      0.01585      
33900   0.10110    0.01170    0.02829    0.00100      0.05870      0.00703      0.00313      0.05794      0.01577      
34000   0.10108    0.01170    0.02828    0.00100      0.05870      0.00703      0.00313      0.05795      0.01581      
34100   0.10108    0.01169    0.02828    0.00100      0.05869      0.00705      0.00311      0.05794      0.01579      
34200   0.10107    0.01169    0.02828    0.00100      0.05869      0.00704      0.00315      0.05794      0.01584      
34300   0.10106    0.01168    0.02828    0.00100      0.05869      0.00705      0.00314      0.05794      0.01580      
34400   0.10106    0.01168    0.02827    0.00101      0.05870      0.00702      0.00309      0.05793      0.01577      
34500   0.10105    0.01168    0.02827    0.00100      0.05870      0.00703      0.00315      0.05795      0.01580      
34600   0.10104    0.01168    0.02827    0.00100      0.05869      0.00703      0.00312      0.05794      0.01580      
34700   0.10103    0.01168    0.02826    0.00100      0.05869      0.00702      0.00314      0.05793      0.01572      
34800   0.10102    0.01167    0.02826    0.00101      0.05868      0.00704      0.00310      0.05793      0.01569      
34900   0.10102    0.01167    0.02825    0.00101      0.05868      0.00705      0.00320      0.05792      0.01582      
35000   0.10101    0.01166    0.02825    0.00100      0.05869      0.00704      0.00313      0.05793      0.01572      
35100   0.10100    0.01166    0.02825    0.00101      0.05868      0.00705      0.00312      0.05794      0.01573      
35200   0.10099    0.01165    0.02824    0.00101      0.05868      0.00705      0.00305      0.05792      0.01573      
35300   0.10099    0.01165    0.02824    0.00100      0.05869      0.00706      0.00315      0.05794      0.01577      
35400   0.10099    0.01165    0.02824    0.00101      0.05868      0.00705      0.00317      0.05793      0.01582      
35500   0.10098    0.01165    0.02823    0.00100      0.05868      0.00705      0.00314      0.05792      0.01572      
35600   0.10097    0.01164    0.02823    0.00101      0.05868      0.00705      0.00313      0.05793      0.01570      
35700   0.10096    0.01164    0.02823    0.00100      0.05869      0.00702      0.00307      0.05793      0.01574      
35800   0.10095    0.01163    0.02823    0.00101      0.05868      0.00704      0.00309      0.05792      0.01574      
35900   0.10095    0.01163    0.02822    0.00100      0.05869      0.00703      0.00318      0.05793      0.01581      
36000   0.10093    0.01162    0.02822    0.00100      0.05868      0.00705      0.00319      0.05792      0.01577      
36100   0.10093    0.01162    0.02822    0.00101      0.05868      0.00703      0.00313      0.05792      0.01567      
36200   0.10092    0.01162    0.02821    0.00101      0.05868      0.00704      0.00314      0.05792      0.01572      
36300   0.10091    0.01161    0.02821    0.00100      0.05868      0.00704      0.00308      0.05792      0.01573      
36400   0.10091    0.01162    0.02821    0.00101      0.05868      0.00704      0.00305      0.05792      0.01569      
36500   0.10090    0.01161    0.02820    0.00100      0.05868      0.00705      0.00314      0.05792      0.01578      
36600   0.10090    0.01161    0.02820    0.00100      0.05868      0.00704      0.00313      0.05792      0.01573      
36700   0.10089    0.01161    0.02820    0.00100      0.05868      0.00703      0.00314      0.05792      0.01575      
36800   0.10088    0.01160    0.02819    0.00100      0.05868      0.00703      0.00315      0.05793      0.01569      
36900   0.10088    0.01159    0.02819    0.00101      0.05868      0.00704      0.00314      0.05792      0.01567      
37000   0.10087    0.01159    0.02819    0.00101      0.05867      0.00704      0.00308      0.05792      0.01566      
37100   0.10086    0.01159    0.02818    0.00101      0.05868      0.00703      0.00312      0.05793      0.01567      
37200   0.10085    0.01159    0.02818    0.00101      0.05867      0.00703      0.00309      0.05792      0.01568      
37300   0.10085    0.01158    0.02818    0.00100      0.05868      0.00704      0.00310      0.05793      0.01569      
37400   0.10084    0.01158    0.02817    0.00101      0.05867      0.00703      0.00312      0.05791      0.01570      
37500   0.10083    0.01158    0.02817    0.00100      0.05867      0.00702      0.00301      0.05792      0.01558      
37600   0.10083    0.01158    0.02817    0.00100      0.05867      0.00703      0.00312      0.05792      0.01576      
37700   0.10083    0.01158    0.02817    0.00100      0.05868      0.00703      0.00312      0.05792      0.01571      
37800   0.10082    0.01157    0.02816    0.00101      0.05867      0.00702      0.00310      0.05791      0.01565      
37900   0.10081    0.01157    0.02816    0.00101      0.05867      0.00702      0.00310      0.05791      0.01568      
38000   0.10081    0.01157    0.02816    0.00100      0.05868      0.00702      0.00313      0.05792      0.01578      
38100   0.10081    0.01157    0.02816    0.00100      0.05867      0.00702      0.00306      0.05792      0.01571      
38200   0.10080    0.01157    0.02815    0.00101      0.05867      0.00703      0.00307      0.05792      0.01581      
38300   0.10079    0.01156    0.02815    0.00100      0.05867      0.00702      0.00312      0.05792      0.01583      
38400   0.10078    0.01155    0.02815    0.00100      0.05867      0.00704      0.00308      0.05792      0.01582      
38500   0.10077    0.01155    0.02814    0.00100      0.05867      0.00704      0.00312      0.05792      0.01585      
38600   0.10076    0.01155    0.02814    0.00100      0.05867      0.00703      0.00310      0.05792      0.01582      
38700   0.10076    0.01154    0.02814    0.00100      0.05867      0.00704      0.00310      0.05791      0.01581      
38800   0.10075    0.01154    0.02813    0.00101      0.05867      0.00704      0.00309      0.05791      0.01580      
38900   0.10074    0.01153    0.02813    0.00100      0.05867      0.00702      0.00313      0.05791      0.01580      
39000   0.10073    0.01153    0.02813    0.00101      0.05867      0.00701      0.00315      0.05792      0.01576      
39100   0.10072    0.01153    0.02812    0.00101      0.05866      0.00701      0.00308      0.05791      0.01574      
39200   0.10071    0.01152    0.02812    0.00100      0.05866      0.00702      0.00312      0.05791      0.01574      
39300   0.10070    0.01152    0.02812    0.00101      0.05866      0.00702      0.00310      0.05790      0.01576      
39400   0.10070    0.01152    0.02811    0.00101      0.05865      0.00701      0.00310      0.05790      0.01574      
39500   0.10069    0.01151    0.02811    0.00101      0.05866      0.00701      0.00311      0.05791      0.01574      
39600   0.10068    0.01150    0.02810    0.00100      0.05867      0.00702      0.00312      0.05791      0.01577      
39700   0.10068    0.01151    0.02810    0.00100      0.05866      0.00702      0.00312      0.05791      0.01573      
39800   0.10067    0.01150    0.02810    0.00101      0.05866      0.00702      0.00312      0.05791      0.01573      
39900   0.10066    0.01150    0.02809    0.00100      0.05867      0.00701      0.00308      0.05791      0.01574      
40000   0.10065    0.01149    0.02809    0.00101      0.05866      0.00701      0.00310      0.05790      0.01569      
40100   0.10065    0.01149    0.02809    0.00101      0.05866      0.00702      0.00311      0.05790      0.01572      
40200   0.10064    0.01149    0.02809    0.00101      0.05866      0.00701      0.00308      0.05790      0.01570      
40300   0.10063    0.01148    0.02808    0.00101      0.05865      0.00702      0.00309      0.05788      0.01572      
40400   0.10063    0.01148    0.02808    0.00101      0.05865      0.00702      0.00306      0.05790      0.01575      
40500   0.10062    0.01147    0.02808    0.00101      0.05865      0.00702      0.00309      0.05790      0.01573      
40600   0.10061    0.01147    0.02807    0.00101      0.05865      0.00702      0.00309      0.05789      0.01569      
40700   0.10060    0.01147    0.02807    0.00101      0.05865      0.00704      0.00312      0.05788      0.01574      
40800   0.10059    0.01146    0.02807    0.00101      0.05864      0.00702      0.00308      0.05788      0.01572      
40900   0.10059    0.01146    0.02807    0.00101      0.05864      0.00702      0.00310      0.05788      0.01569      
41000   0.10058    0.01146    0.02807    0.00101      0.05864      0.00702      0.00309      0.05788      0.01573      
41100   0.10057    0.01145    0.02806    0.00101      0.05864      0.00704      0.00308      0.05788      0.01569      
41200   0.10057    0.01145    0.02806    0.00100      0.05864      0.00703      0.00311      0.05788      0.01567      
41300   0.10056    0.01145    0.02806    0.00101      0.05864      0.00704      0.00314      0.05788      0.01575      
41400   0.10055    0.01145    0.02805    0.00101      0.05864      0.00703      0.00311      0.05788      0.01572      
41500   0.10055    0.01144    0.02805    0.00101      0.05864      0.00701      0.00309      0.05789      0.01573      
41600   0.10054    0.01144    0.02805    0.00101      0.05865      0.00700      0.00312      0.05789      0.01570      
41700   0.10053    0.01144    0.02804    0.00101      0.05864      0.00703      0.00312      0.05787      0.01581      
41800   0.10052    0.01143    0.02804    0.00101      0.05864      0.00701      0.00312      0.05787      0.01579      
41900   0.10051    0.01143    0.02804    0.00101      0.05864      0.00701      0.00316      0.05788      0.01579      
42000   0.10051    0.01142    0.02804    0.00100      0.05864      0.00701      0.00310      0.05788      0.01571      
42100   0.10050    0.01142    0.02803    0.00100      0.05864      0.00702      0.00317      0.05787      0.01580      
42200   0.10049    0.01142    0.02803    0.00100      0.05864      0.00703      0.00314      0.05788      0.01584      
42300   0.10048    0.01142    0.02803    0.00101      0.05863      0.00702      0.00317      0.05788      0.01578      
42400   0.10047    0.01141    0.02802    0.00101      0.05863      0.00702      0.00310      0.05788      0.01570      
42500   0.10047    0.01141    0.02802    0.00100      0.05863      0.00703      0.00319      0.05787      0.01577      
42600   0.10046    0.01141    0.02802    0.00101      0.05863      0.00702      0.00310      0.05786      0.01576      
42700   0.10046    0.01140    0.02802    0.00100      0.05863      0.00702      0.00312      0.05787      0.01573      
42800   0.10045    0.01140    0.02801    0.00101      0.05862      0.00703      0.00311      0.05787      0.01574      
42900   0.10044    0.01140    0.02801    0.00101      0.05862      0.00702      0.00315      0.05786      0.01577      
43000   0.10044    0.01140    0.02801    0.00101      0.05862      0.00702      0.00314      0.05786      0.01574      
43100   0.10043    0.01139    0.02800    0.00100      0.05863      0.00702      0.00313      0.05787      0.01574      
43200   0.10043    0.01139    0.02800    0.00101      0.05863      0.00700      0.00310      0.05788      0.01571      
43300   0.10042    0.01139    0.02800    0.00101      0.05862      0.00701      0.00320      0.05787      0.01579      
43400   0.10041    0.01139    0.02800    0.00101      0.05862      0.00701      0.00315      0.05788      0.01577      
43500   0.10041    0.01138    0.02799    0.00101      0.05863      0.00701      0.00311      0.05787      0.01577      
43600   0.10040    0.01138    0.02799    0.00101      0.05863      0.00700      0.00309      0.05788      0.01574      
43700   0.10040    0.01138    0.02799    0.00100      0.05863      0.00700      0.00311      0.05787      0.01575      
43800   0.10039    0.01138    0.02798    0.00100      0.05863      0.00701      0.00315      0.05787      0.01576      
43900   0.10039    0.01138    0.02798    0.00100      0.05863      0.00700      0.00311      0.05787      0.01578      
44000   0.10038    0.01137    0.02798    0.00100      0.05863      0.00701      0.00311      0.05786      0.01576      
44100   0.10038    0.01137    0.02797    0.00100      0.05863      0.00703      0.00316      0.05786      0.01581      
44200   0.10036    0.01136    0.02797    0.00101      0.05862      0.00701      0.00310      0.05786      0.01572      
44300   0.10036    0.01136    0.02797    0.00101      0.05862      0.00702      0.00312      0.05786      0.01572      
44400   0.10035    0.01136    0.02796    0.00100      0.05862      0.00701      0.00312      0.05787      0.01571      
44500   0.10034    0.01136    0.02796    0.00101      0.05862      0.00701      0.00310      0.05786      0.01564      
44600   0.10033    0.01135    0.02795    0.00101      0.05862      0.00701      0.00310      0.05786      0.01574      
44700   0.10032    0.01135    0.02795    0.00101      0.05861      0.00701      0.00313      0.05786      0.01573      
44800   0.10032    0.01135    0.02795    0.00101      0.05861      0.00700      0.00313      0.05785      0.01566      
44900   0.10031    0.01135    0.02794    0.00100      0.05861      0.00699      0.00317      0.05786      0.01576      
45000   0.10030    0.01135    0.02794    0.00100      0.05861      0.00701      0.00315      0.05786      0.01575      
45100   0.10030    0.01135    0.02794    0.00100      0.05861      0.00700      0.00312      0.05785      0.01572      
45200   0.10029    0.01135    0.02793    0.00101      0.05860      0.00702      0.00317      0.05784      0.01577      
45300   0.10029    0.01134    0.02793    0.00100      0.05861      0.00701      0.00317      0.05785      0.01577      
45400   0.10028    0.01134    0.02793    0.00100      0.05860      0.00701      0.00316      0.05784      0.01581      
45500   0.10028    0.01134    0.02793    0.00100      0.05860      0.00701      0.00312      0.05785      0.01580      
45600   0.10027    0.01133    0.02793    0.00101      0.05860      0.00700      0.00316      0.05786      0.01579      
45700   0.10026    0.01133    0.02792    0.00100      0.05861      0.00701      0.00314      0.05786      0.01580      
45800   0.10025    0.01132    0.02792    0.00101      0.05860      0.00701      0.00313      0.05785      0.01579      
45900   0.10025    0.01132    0.02792    0.00101      0.05860      0.00701      0.00316      0.05785      0.01580      
46000   0.10024    0.01132    0.02792    0.00100      0.05861      0.00700      0.00315      0.05785      0.01574      
46100   0.10024    0.01132    0.02791    0.00100      0.05861      0.00701      0.00316      0.05786      0.01579      
46200   0.10024    0.01131    0.02791    0.00100      0.05861      0.00700      0.00314      0.05785      0.01579      
46300   0.10023    0.01131    0.02791    0.00101      0.05860      0.00701      0.00313      0.05785      0.01578      
46400   0.10022    0.01131    0.02790    0.00101      0.05860      0.00700      0.00314      0.05785      0.01577      
46500   0.10021    0.01130    0.02790    0.00100      0.05860      0.00701      0.00313      0.05785      0.01580      
46600   0.10021    0.01130    0.02790    0.00101      0.05860      0.00701      0.00313      0.05785      0.01577      
46700   0.10020    0.01130    0.02790    0.00101      0.05860      0.00701      0.00314      0.05784      0.01578      
46800   0.10020    0.01130    0.02789    0.00101      0.05860      0.00702      0.00319      0.05784      0.01577      
46900   0.10020    0.01130    0.02789    0.00101      0.05860      0.00701      0.00319      0.05784      0.01579      
47000   0.10019    0.01130    0.02789    0.00101      0.05860      0.00700      0.00313      0.05784      0.01572      
47100   0.10018    0.01129    0.02788    0.00101      0.05860      0.00700      0.00315      0.05783      0.01575      
47200   0.10017    0.01129    0.02788    0.00101      0.05860      0.00700      0.00317      0.05783      0.01581      
47300   0.10016    0.01128    0.02788    0.00100      0.05859      0.00702      0.00315      0.05784      0.01582      
