  1.1787250e+00   3.4501535e-04
 -3.1555155e-01   5.5892521e-04
 -2.9047869e-02   1.7554668e-04
  9.1575302e-02   3.9444343e-04
  4.5498055e-01   1.7892370e-04
  2.3837538e-01   3.2399001e-04
  9.6726902e-02   4.3204130e-04
  1.0702044e-03   5.4181297e-04
  1.4759012e-01   2.8598370e-04
  1.6788594e-01   7.4392330e-04
 -2.3258656e-01   5.7083234e-04
 -7.2311712e-03   3.4985414e-03
  4.3099514e-01   2.3688020e-03
 -1.1182304e-02   1.2804215e-03
  9.4389208e-02   9.1052977e-03
  1.0981710e-01   5.3023495e-04
  2.0709002e-02   1.1194462e-03
  8.8902656e-03   1.7910888e-03
 -6.8189569e-02   1.4263102e-03
 -2.0268805e-01   8.8914676e-04
 -2.4654904e-02   6.4672064e-04
 -1.4026037e-01   5.4359012e-03
 -2.9403042e-02   8.1535138e-04
  1.7521679e-01   1.4965629e-03
 -8.2573267e-03   7.9578382e-04
 -1.0838309e-01   2.7039464e-04
  1.3016038e+00   3.0137476e-04
  1.1511219e-01   7.2330044e-04
  1.3300747e-03   3.9767199e-03
  4.7698297e-02   9.0358796e-04
 -1.1129101e-01   7.1402779e-04
 -3.8896278e-02   2.4022574e-03
  5.9820151e-01   5.1917729e-04
  2.0057803e-01   2.5382144e-03
  2.7642706e-01   2.6661070e-04
  4.5283850e-02   5.5654543e-03
  1.5299778e-02   2.1256385e-03
  4.1988255e-03   1.5378348e-03
  1.3966232e-03   4.0104543e-03
 -4.7398809e-02   2.3215092e-03
  2.0986415e-02   2.4087070e-03
 -7.9065144e-02   3.4220184e-03
  2.0376851e-03   8.7978411e-04
  6.4761122e-03   7.1067619e-03
  1.7518248e-01   1.4387969e-03
  4.5049549e-03   2.5682864e-03
  8.2026012e-03   1.0035472e-03
 -2.3989672e-02   5.0861887e-03
  1.5013063e-02   3.3147517e-03
  3.7370678e-03   7.4904892e-03
 -2.5844576e-03   3.3799440e-03
  2.3259336e-01   3.4514078e-04
 -1.1107285e-01   1.0547743e-03
 -5.7226135e-03   2.2397665e-03
  6.6523766e-03   1.4569224e-03
  1.4690762e-02   4.8874933e-03
 -2.8211242e-02   4.6606855e-03
 -1.4656698e-02   2.2989530e-03
  4.8759924e-03   3.8670290e-03
  7.0204604e-03   5.9629711e-03
 -1.2599174e-03   3.1019778e-03
  1.8367939e-02   2.5856837e-03
  1.0531875e-02   4.6277099e-04
 -5.8540753e-03   1.0927243e-03
 -7.0849760e-03   2.8589971e-03
 -1.8866436e-04   3.8513141e-03
  3.0167300e-02   3.7731254e-03
 -3.1052407e-02   2.1796124e-03
 -2.0943511e-02   6.0795783e-03
 -5.5427486e-03   4.2461371e-03
 -1.4508486e-03   5.0150622e-03
  3.8956604e-03   3.1929146e-03
 -1.6306147e-02   5.7433126e-03
  5.5549793e-02   5.3254701e-03
  6.7910232e-02   5.0717625e-03
 -1.0368807e-02   4.2141750e-03
 -8.1208115e-03   2.6720460e-03
 -3.9383996e-02   4.3533812e-03
 -1.0454198e-02   7.9083890e-03
 -2.4784859e-02   4.0754997e-03
  4.3854979e-03   1.3454915e-03
  1.3859990e-02   3.3042806e-03
 -4.1097482e-03   5.1002228e-03
  3.4227367e-02   8.4011974e-03
  5.1119947e-03   4.5491052e-03
 -4.5371765e-01   1.4583059e-04
  3.3314489e-02   1.0968916e-03
  3.7865323e-01   3.4328812e-04
 -5.3153105e-02   6.4996857e-04
  1.6403073e-02   7.8858715e-03
  1.0183687e-02   4.5480994e-03
  6.0638716e-04   5.1015480e-03
  4.7483756e-03   2.9114224e-03
 -1.4152372e-02   2.4470503e-03
  9.8102167e-02   2.2881280e-03
 -2.1593565e-02   1.8224039e-03
  8.9094164e-03   3.2230532e-03
  1.9758579e-04   4.4496143e-03
 -2.1566474e-03   3.2368295e-03
 -3.2657947e-02   3.6181309e-03
 -4.5161624e-03   6.8657571e-03
  6.7744711e-03   5.3527602e-03
 -4.5798002e-03   6.7263129e-03
  6.5870765e-03   9.4136473e-04
 -1.1951288e-02   8.0857985e-03
  9.1207158e-03   3.8402951e-03
 -3.6967386e-02   3.9910856e-03
 -2.0516807e-02   5.4572220e-03
 -1.2101959e-02   1.2831145e-03
 -1.7820356e-02   6.1500003e-03
 -3.7162971e-02   3.3583019e-03
 -3.8831335e-02   6.0458779e-03
  1.3060717e-02   4.3484229e-03
 -1.1477384e-02   1.6932797e-03
  2.7741820e-02   3.1489637e-03
 -6.8371650e-03   3.0794435e-03
 -4.5674373e-03   3.9219819e-03
 -2.5281837e-02   4.4667805e-03
 -2.0260442e-02   1.8511292e-03
  1.0085073e-04   6.4705632e-04
 -1.1514269e-02   4.7833370e-03
 -6.3352339e-02   7.0594618e-04
  1.1951040e-03   5.9910626e-03
  5.0128620e-02   2.4254126e-03
  2.0116393e-02   5.3355251e-03
 -1.6351391e-03   4.5442851e-03
 -4.3478203e-03   8.6773746e-03
 -1.6326927e-02   3.5454961e-03
 -9.0093799e-03   3.8922634e-03
  9.3094148e-03   4.5207068e-03
  1.1545380e-04   1.8581207e-03
 -1.2782336e-02   4.4518271e-03
 -3.5080251e-01   1.5130918e-03
 -2.4560297e-02   1.4287683e-03
 -4.1299868e-02   2.9392648e-03
  7.4825827e-03   3.5606439e-03
  6.4468514e-03   1.0084333e-03
 -3.9340734e-02   1.0408509e-03
  3.1906036e-01   6.1285059e-04
 -6.3147180e-02   6.6933240e-04
  5.4620042e-02   7.1648910e-04
  6.5588400e-02   7.7536721e-03
  4.9107978e-03   4.8738350e-03
  8.5087130e-03   5.9390543e-03
 -2.7166225e-02   9.3037303e-04
 -2.3021260e-02   3.3279366e-03
  7.3899822e-03   2.6215215e-03
 -1.2161523e-02   2.8005061e-03
  2.0423444e-02   1.7414773e-03
  1.9084376e-03   7.6482133e-03
  1.2191283e-02   3.2883640e-03
  2.6036574e-02   4.9498200e-04
  6.7379229e-02   1.5741476e-03
 -3.0061922e-03   7.3751695e-03
  9.2464089e-02   1.2180761e-03
  4.7649510e-02   1.8961383e-03
  1.5545833e-02   2.3906517e-03
  3.2881245e-02   8.1270299e-04
  5.4426271e-02   1.0150105e-03
 -4.8460476e-02   1.0674816e-03
 -1.8370572e-02   9.4231293e-03
  1.9525720e-02   1.3109222e-03
  8.2717948e-02   1.6106695e-03
  1.3668484e-03   7.8069274e-03
  1.0603550e-02   3.9170268e-03
 -3.4660734e-02   6.4594303e-03
 -1.1599360e-02   2.2724250e-03
  7.0407931e-03   4.0804534e-03
  1.5342734e-02   4.6450454e-03
  1.0436022e-02   5.3828326e-03
 -9.3927057e-03   4.9296538e-03
  9.6225310e-03   2.2210118e-03
 -3.5089951e-02   4.9291309e-03
 -6.4490153e-03   3.2460159e-03
 -1.0058226e-02   6.3172211e-03
  3.0975547e-02   4.6958900e-03
  1.1298218e+00   4.7505004e-05
  3.4564742e-01   6.3268861e-05
 -2.2615162e-01   1.6440829e-04
 -1.4667951e-02   4.3182066e-04
  3.3089828e-01   1.8313770e-04
 -6.6155970e-01   1.1609615e-04
 -9.3967861e-01   1.3309049e-04
  1.1358035e+00   2.1889480e-04
 -4.3371487e-01   2.2437092e-04
 -2.0036997e-01   1.8487044e-04
 -2.0609543e-01   1.2423910e-03
 -3.0622342e-01   1.6447925e-03
 -2.6031542e+00   6.4488256e-04
  4.5146722e-01   2.8597578e-04
  4.4653973e-01   5.3503877e-04
 -7.3055214e-01   2.2389017e-04
 -4.7902867e-02   3.6198896e-04
 -8.2183450e-02   1.1023800e-03
 -1.6708242e+00   3.0932773e-04
  4.2404613e-01   4.8354056e-04
 -2.3800193e-03   1.3833071e-04
  8.3347205e-03   2.1659117e-03
  1.8095173e-01   5.1858812e-04
 -1.3299634e+00   5.1276456e-04
 -1.0025619e+00   6.9976388e-04
 -9.3887508e-01   2.5771954e-04
  2.3512289e-01   1.6708787e-04
  4.8373589e-01   2.9988043e-04
 -4.4871899e-01   4.2572902e-03
  5.7946652e-02   4.9076643e-04
 -1.0868762e+00   1.8443968e-03
 -4.9253809e-01   1.4496092e-03
 -1.7439874e-01   7.2476250e-04
  3.5183576e-01   9.9312910e-04
 -1.6675721e-01   7.5339951e-04
 -6.3288957e-01   3.9584539e-04
 -8.5515372e-02   2.2598449e-04
 -2.2237892e-01   2.3264876e-03
  1.0610665e-01   1.9644287e-03
 -2.6154399e-01   8.3364814e-04
  3.8504256e-03   3.1545523e-04
  1.9290113e-01   9.5898419e-04
 -1.2364171e-02   1.2759864e-02
 -1.6164857e-01   4.9076527e-03
 -1.3735211e-01   2.2408979e-03
  4.4825180e-03   3.1249877e-03
 -5.1562823e-02   3.6804304e-03
  2.5473675e-02   8.8534562e-04
 -2.0253128e-01   4.3904377e-04
  3.9809179e-03   3.1247784e-03
 -4.2359987e-03   6.0381056e-03
  7.2723217e-02   8.4462704e-04
 -5.6969643e-02   1.2979918e-03
  6.7228633e-03   3.4755543e-03
  7.6448745e-03   4.0919450e-03
  1.6352554e-01   2.1429968e-03
  5.2087814e-02   5.3556003e-03
  5.8245100e-03   5.4623513e-03
  8.4896469e-03   6.4562014e-03
  4.9180128e-03   2.8114000e-03
 -6.2839561e-03   6.2175621e-03
  1.2144025e-02   5.6199729e-03
 -1.3861869e-02   1.3738375e-03
 -2.0647910e-03   1.2602202e-03
 -1.4400925e-01   5.6657696e-04
 -1.7904049e-02   4.3300535e-03
 -4.4394360e-04   7.7495014e-04
 -1.1851840e-03   4.7608516e-03
  1.6866012e-03   6.3015092e-03
  1.5768422e-02   2.4268468e-04
  2.1967097e-01   1.8581164e-03
 -2.4128446e-02   2.3122586e-03
 -1.0207429e-03   4.0499168e-03
  2.1158792e-02   2.4731264e-03
  2.7517321e-02   8.9229811e-03
 -4.4537697e-02   6.0537009e-04
  5.5188388e-03   5.7051396e-03
 -1.3996805e-02   5.9022154e-03
  1.1484433e-02   4.7318945e-03
  2.7148297e-02   6.5885833e-03
  7.8908019e-03   1.3898044e-03
  2.6028039e-02   4.8196041e-03
 -7.0558675e-03   3.5809437e-03
  2.4588514e-02   7.0027732e-03
  3.7397642e-03   4.4134720e-03
 -1.7878510e-02   8.0200873e-04
 -4.0332559e-02   9.4786445e-03
  1.2895164e-01   2.8294965e-04
  6.5495394e-02   5.6329701e-04
  2.1227340e-01   8.0248388e-04
 -1.5288030e-03   8.7663525e-04
  7.4456304e-02   1.7151624e-03
  6.5606043e-02   1.2556744e-04
 -8.0765560e-02   1.3725341e-03
 -4.6611592e-02   1.2307451e-03
 -2.0933750e-03   4.4225491e-04
 -1.6564509e-02   9.5677606e-05
 -1.3433383e-02   3.5966260e-04
 -3.1297211e-02   1.0793982e-03
 -2.6945287e-01   1.0667028e-03
 -4.6934478e-02   3.2527272e-03
  3.5829446e-01   1.2575471e-03
  4.6239901e-02   4.4738329e-03
 -2.8050452e-02   9.6780609e-04
 -1.0682711e-01   2.3323759e-03
 -1.9285896e-01   2.4142636e-03
  2.1297220e-02   7.6032378e-04
  4.2853966e-02   7.2905858e-04
  3.5728261e-02   6.3771923e-04
 -1.0934965e-02   2.7312911e-03
 -3.9218698e-02   4.8941671e-04
 -1.7651564e-01   2.2855287e-03
 -1.7151264e-02   3.2521263e-03
  2.1917181e-01   3.1311356e-04
 -3.3731124e-01   3.8574587e-04
  3.1511472e-03   6.2095100e-04
 -5.3462982e-02   8.1798267e-03
 -7.0140539e-03   2.1222406e-03
 -2.2232312e-01   1.5053375e-03
 -7.3504426e-02   2.2701337e-03
 -1.8417478e-02   6.1743462e-04
  2.2746665e-02   8.5640873e-04
 -2.7473988e-02   2.0858229e-03
 -4.6607079e-03   5.8724405e-03
 -4.5702934e-02   1.6627334e-03
 -5.9158998e-03   3.0520987e-03
  1.9412100e-02   3.8512696e-03
 -7.2238959e-02   4.5609339e-03
  9.2436783e-02   1.7350781e-03
  4.0659383e-03   3.6976738e-03
 -1.6657399e-02   8.1466772e-03
 -5.9650410e-03   1.1664741e-02
 -1.5679392e+00   2.0613713e-04
 -2.1438631e-01   5.1755982e-04
  6.0678538e-02   3.2023466e-04
  1.6948496e-01   1.7376362e-03
 -1.2076454e-01   2.3388233e-04
 -1.6080901e-02   8.8880223e-04
 -2.9444155e-01   5.5278250e-04
 -8.2480997e-01   8.2964299e-04
 -1.2952416e-01   1.8483556e-04
  1.9127099e-02   2.2532966e-03
 -1.0744495e-02   3.1911931e-03
 -1.1422701e-01   1.2576544e-03
  1.6768767e-02   2.7040208e-03
 -1.6692434e-01   1.5989929e-03
  4.7465339e-03   2.8750696e-03
 -2.9458968e-02   4.1673156e-03
  1.7505430e-02   5.1016128e-03
 -3.1482425e-02   4.1427729e-03
  5.7420181e-03   2.1125923e-03
  2.8047189e-01   7.7495625e-04
 -6.7487530e-02   1.0187111e-03
 -1.3189323e-03   6.1098877e-03
 -6.8752887e-03   2.7971163e-03
  8.0319364e-03   2.1618307e-03
  8.0273463e-04   4.7411029e-03
  8.2578197e-02   2.4085296e-03
  3.1616995e-01   3.7994154e-04
  1.1071964e-01   8.6010643e-04
 -4.9871798e-03   5.8311224e-03
  5.2497564e-03   2.1088689e-03
 -9.4845571e-02   1.1440683e-03
 -1.6449483e-02   8.2069803e-03
 -1.4464543e-02   1.0352538e-03
  3.2020935e-01   6.4827846e-03
 -7.9197310e-02   1.3700018e-03
 -2.3782421e-02   5.6063645e-03
  5.9540756e-03   3.2775709e-03
  1.1950979e-03   5.7899356e-03
  1.3946079e-02   3.0485066e-03
  7.3802918e-03   6.3205878e-03
 -2.6199396e-03   1.9398995e-03
  5.0635714e-02   2.2898950e-03
 -5.3992509e-03   1.6394346e-03
  4.3429242e-04   3.8208354e-03
 -3.0017072e-01   7.4328820e-04
 -5.0132416e-02   1.3578592e-03
 -1.0343250e-02   6.5998803e-04
 -1.3240412e-02   1.6450995e-03
 -8.4528305e-02   1.0162703e-03
 -4.3077145e-02   3.8826584e-03
  3.1476267e-02   1.9597411e-03
  2.1967916e-02   1.9613092e-03
  1.7469546e-02   8.5027865e-04
 -5.3831334e-03   3.2215079e-03
  4.1030848e-01   1.1871286e-03
 -5.9189047e-03   2.1495800e-03
  1.0757014e-02   4.1834181e-03
 -1.7131686e-02   4.2986772e-03
  2.8101220e-03   3.5526808e-03
 -1.0078486e-02   4.1281432e-03
  8.9519918e-03   1.7964419e-03
  4.0720152e-03   3.1749893e-03
 -5.9820535e-03   1.2033798e-03
  1.8210731e-01   9.1590732e-04
  3.0455388e-02   2.7165429e-03
 -1.1056514e-03   3.2584525e-03
 -1.5702387e-04   2.1484625e-03
  5.7805046e-02   2.4041664e-03
 -2.7431874e-02   7.6361856e-04
  4.2950800e-03   1.5000891e-03
  1.6322263e-02   1.9682157e-03
 -1.0682604e-02   8.7518408e-04
  2.2609088e-01   1.7460601e-03
 -5.5645304e-03   1.8148449e-03
  6.6056862e-02   5.8417493e-03
  1.9603368e-02   5.0242934e-03
  1.8866366e-02   3.2625566e-03
 -1.2995432e-03   6.2665828e-03
  8.9933341e-03   3.1100574e-03
 -3.5737397e-03   1.0208690e-02
  3.9559584e-02   1.6380774e-03
  7.8768260e-04   3.6557980e-03
 -6.6765860e-02   1.7967665e-03
  3.0413102e-02   1.1979692e-02
  2.0148935e-02   5.2860617e-03
  1.2496098e-02   1.2680549e-03
 -9.5515558e-03   7.1382951e-03
 -1.5249795e-02   6.1221267e-03
 -1.0922924e-02   5.0854986e-04
  4.0815192e-01   5.2738003e-04
  2.0042668e-01   1.2444814e-03
 -1.8805152e-02   7.3725003e-04
 -7.2282267e-01   1.1879080e-03
  8.6675175e-02   2.3558591e-03
 -1.3911912e-01   1.1961830e-03
  9.2333019e-01   7.3874625e-04
  6.5923288e-02   2.1732850e-04
 -3.4676720e-03   2.8811374e-03
 -5.1109350e-01   1.8987204e-03
  3.0257542e-02   5.1974733e-03
 -3.5514381e-02   1.3453773e-03
  7.5776619e-01   2.1295641e-03
  3.1010386e-02   7.2066966e-03
 -2.5190699e-01   2.4750708e-03
  1.8151553e-01   4.9934554e-04
  4.8360828e-02   2.1847512e-03
 -4.3788005e-02   1.6291291e-04
 -2.6233550e-02   6.2503055e-04
 -7.5352371e-02   6.9637661e-04
 -1.7810574e-02   2.6237932e-03
  3.3436909e-02   1.7300057e-03
 -2.6749977e-01   2.8453828e-03
 -1.5678376e-02   3.5602676e-03
 -3.4650676e-02   1.0845999e-04
 -1.9697735e-02   1.9393739e-04
 -9.8481283e-02   1.3429043e-03
 -5.6594633e-04   3.2860176e-03
 -7.0151933e-03   7.5006369e-04
 -8.5952044e-02   1.7615934e-03
 -3.7325375e-02   5.1978952e-03
  3.5885930e-02   3.4255506e-03
  8.9178486e-03   1.3049918e-03
  1.5015468e-01   1.4558053e-03
 -4.6850983e-03   2.9810581e-03
  5.9261608e-01   1.8110441e-03
 -1.8955303e-02   3.2197454e-03
 -5.6658485e-03   9.3209110e-03
  9.5165176e-03   4.5354883e-03
 -3.2219766e-03   1.6045829e-03
 -5.1847562e-02   2.7193096e-03
  2.1300362e-02   5.0171795e-03
 -1.8297832e-03   1.6367163e-03
 -1.3805256e+00   1.0277377e-04
  5.1545298e-01   2.1798661e-04
  1.1036004e+00   8.1187225e-04
  1.3121754e+00   1.5937821e-03
  2.6504365e-01   2.9007491e-04
 -1.8291734e-01   1.1898044e-03
 -6.1174715e-01   4.2050070e-04
  3.1630397e-01   7.1210036e-04
  6.9567704e-01   1.0208925e-04
 -2.3644127e-01   4.0578675e-03
 -2.7382543e-02   1.0306428e-03
  2.9649369e-03   2.8328807e-03
  1.7092353e-01   7.5817143e-04
  4.2128074e-01   2.5641320e-03
  3.4786472e-03   5.3081783e-03
  1.2076645e-01   1.1885860e-03
 -7.6199007e-01   2.5798476e-04
  4.5069251e-03   2.2389377e-04
 -2.2673181e-01   4.4837728e-04
 -8.5911614e-01   6.4037152e-04
 -1.1242042e-01   2.7984826e-04
  3.7393107e-03   7.4282559e-03
  2.8137943e-01   1.6458812e-03
  7.8257576e-02   3.1592621e-04
 -1.6685699e-01   2.0529800e-03
  5.3191710e-01   9.0191088e-04
  2.2571278e-01   2.3907950e-04
  7.0548284e-01   1.1219027e-03
 -1.7671859e-02   7.8716390e-03
  4.8595434e-03   1.8433467e-03
 -2.2133021e-01   4.4586831e-03
 -2.2449808e-01   5.9838151e-03
 -4.4238162e-01   9.8431890e-04
 -1.2327953e-01   7.0650422e-04
 -6.1670486e-02   6.3342007e-04
 -2.6229117e-04   4.2739026e-03
  2.4574591e-02   1.1277281e-03
  2.6403951e-02   2.2546514e-03
  2.6243268e-02   6.7806067e-03
 -1.0812397e-01   1.1359160e-03
  1.3783026e-01   5.1782932e-03
 -6.2710889e-02   1.4590459e-03
  1.0536600e-02   1.9625330e-03
 -4.4642976e-03   5.6821839e-03
  5.5791759e-01   6.9911376e-04
  6.3945317e-01   5.0944043e-04
  1.3621264e-02   4.0384609e-04
 -3.8210109e-01   5.7854486e-04
 -2.1565145e-02   4.3303584e-04
  1.9804046e-04   4.3446544e-04
  2.7618200e-01   1.4961419e-04
 -5.1487479e-02   8.3944545e-04
 -3.3755254e-04   3.8912549e-04
  4.5084893e-03   2.5419577e-03
 -1.6897906e-01   9.5795351e-04
  8.3857998e-02   2.8630663e-03
  1.0361806e-02   1.2823757e-03
 -2.8911975e-01   1.5609787e-03
 -1.2329329e-01   3.7101198e-03
 -9.2095599e-02   6.7255733e-04
 -1.2520422e-01   9.8112423e-04
  1.4963557e-02   4.7474320e-04
 -1.0352852e-03   8.4051304e-04
  3.6725797e-02   3.9214335e-04
 -3.9526895e-01   5.7159888e-04
  1.2987998e-01   3.5733235e-04
 -3.8713641e-02   1.5177146e-03
 -2.4264384e-02   1.5445870e-03
 -1.3065775e-02   2.1130799e-03
 -9.1246225e-02   7.7828130e-04
 -2.0548017e-01   3.8021474e-04
  2.8807157e-01   2.0139402e-04
  1.0442518e-01   2.4698505e-03
 -7.6797076e-02   1.1639752e-03
  2.9250976e-01   1.1435761e-03
 -1.9645846e-02   4.2841872e-03
  4.4299997e-02   1.5194596e-03
  7.1082953e-03   6.9105101e-04
  2.2640146e-02   1.7437541e-03
  7.7016614e-03   6.9964337e-03
 -9.0631314e-02   3.2442014e-04
 -2.5649393e-01   1.0083904e-03
 -4.0264271e-02   7.2482903e-04
  1.9674063e-01   3.7177722e-03
  1.5728550e-02   1.2512441e-03
 -1.0559537e-02   1.1719923e-03
 -1.1631195e-02   5.0617382e-03
  3.7241872e-02   2.1502911e-03
 -6.2023652e-01   5.9657055e-04
  3.6758664e-03   1.5054743e-03
 -9.0727061e-01   3.8990876e-04
  5.9681162e-03   2.9461514e-03
 -7.5986162e-02   9.5335924e-04
  2.9647626e-02   1.3683818e-03
 -7.5762421e-02   1.6299338e-03
 -9.1788790e-04   1.0913067e-03
 -4.2747664e-01   3.2457369e-04
  7.1950756e-02   3.2043173e-03
 -2.0069877e-02   2.2643472e-03
 -3.1087762e-03   5.3588380e-03
  1.0563433e-02   5.3083608e-03
 -1.5491980e-02   5.6263553e-03
 -2.1017151e-02   6.9797304e-03
 -1.4415333e-02   4.8551233e-03
 -1.8212346e-02   3.4547590e-03
 -2.0939676e-02   6.3065984e-03
  3.4361728e-03   2.7283446e-03
  5.7590213e-02   1.6891083e-03
  1.3824533e-02   3.7207699e-03
 -5.7235225e-03   3.1285016e-03
  4.1309129e-02   2.1699474e-03
  5.7391200e-02   5.7294848e-03
  1.7066479e-02   8.3312327e-03
 -1.2517171e-02   2.0835348e-03
  5.6751397e-02   1.6459847e-03
  2.4334996e-03   2.5752047e-03
 -4.4234220e-02   6.0586422e-03
  3.7491685e-01   1.8317671e-03
 -2.5523934e-01   2.0001836e-03
  4.8055295e-03   1.3175911e-03
 -2.0040629e-02   2.3674443e-03
  1.8846557e-02   3.3329560e-03
 -6.6916510e-03   3.6767581e-03
 -3.0374222e-02   4.9000215e-03
  4.5103007e-03   8.2534621e-04
  6.9329883e-03   8.1417626e-03
  1.9687990e-02   3.8486074e-03
 -1.8558638e-02   2.8348814e-03
  3.8787632e-03   3.2127856e-03
  1.3526278e+00   8.4107352e-04
 -5.7949401e-03   3.4846039e-03
 -6.2091485e-02   3.0527944e-03
  1.3120800e-01   4.1761287e-04
 -2.9730328e-04   7.9969974e-04
  2.7794561e-03   2.8582201e-03
 -7.8939758e-02   2.0599719e-03
 -1.1876123e-02   3.3136071e-03
  7.3081930e-03   1.8325169e-03
 -6.4437287e-03   1.9235720e-03
  1.4958206e-02   1.9547318e-03
 -9.8978370e-02   8.1174262e-04
 -3.7393190e-03   3.0501164e-03
  1.5467731e-02   3.2197025e-03
  4.0405855e-02   4.0797028e-03
 -5.4811135e-02   4.4180136e-03
  1.2572245e-01   1.2740701e-03
 -6.7238184e-04   1.0321049e-03
  9.3709212e-03   8.4999874e-03
  1.2168065e-02   2.8001268e-03
 -6.9681033e-03   4.5842519e-03
 -6.6691092e-03   2.5064016e-03
  6.6029192e-03   2.9407872e-03
 -1.0233025e-01   1.5386649e-03
  1.5842376e-02   3.8766155e-03
 -5.7696044e-03   5.6394050e-03
 -3.3393113e-03   3.2537817e-03
  1.1536140e-02   3.0066036e-03
 -3.3374589e-02   7.8583189e-04
 -6.4498512e-03   1.5854117e-03
  4.1962422e-02   2.2916368e-03
  9.1634011e-03   2.0763655e-03
  9.3180127e-03   2.7261213e-03
  2.8225662e-02   5.4835686e-03
  2.4831124e-02   3.2546262e-03
  2.7243905e-02   1.8376237e-03
 -3.5800161e-03   1.9021708e-03
 -3.2414102e-03   3.5920867e-03
  2.5823027e-02   2.2462842e-03
  8.4433472e-03   2.5571627e-03
 -1.6330492e-02   6.9913259e-03
  3.5843141e-02   4.4468935e-03
  1.5247030e-02   3.3851662e-03
 -3.9309185e-02   2.5876735e-03
  1.5213510e-02   2.6189254e-03
  5.3246752e-03   3.2359643e-03
 -3.3639264e-03   3.9104428e-03
 -5.3229626e-02   3.7354676e-04
 -4.9059942e-02   1.1430782e-03
  2.0559491e-01   3.3570908e-04
  4.6112454e-01   6.3066895e-05
  4.6335261e-02   2.1884695e-04
 -1.8644236e-01   2.0295728e-04
 -2.5224386e-02   2.4911537e-04
 -2.7246010e-01   1.6409170e-04
 -5.6182954e-02   1.5880253e-04
 -1.9586409e-02   2.7204128e-03
 -1.1565697e-01   2.5267072e-03
 -3.4733310e-02   5.3886785e-03
 -1.7530832e-02   2.7430688e-03
  2.0370707e-01   2.1477712e-03
  7.8956828e-02   9.8761534e-03
 -3.6755685e-02   2.8526916e-03
 -5.1031178e-01   1.1961844e-04
 -3.1482297e-01   3.7400555e-04
 -1.3672042e-01   1.5200024e-03
 -4.1401576e-02   1.6763433e-03
 -1.0815190e-01   1.4924980e-03
 -1.6432980e-02   5.0416188e-03
 -1.4349836e-02   1.1494557e-03
 -1.8834498e-02   9.8970509e-04
 -5.0258525e-03   5.7981601e-03
  3.8903111e-01   2.1785515e-04
 -6.8792915e-01   6.2635855e-04
  1.4113002e-02   3.5319268e-04
 -3.4398615e-02   6.4840536e-03
  2.0922590e-02   2.8590700e-03
 -7.9121683e-03   3.3891038e-03
  2.2345970e-03   3.1414356e-03
  4.2206165e-03   1.0531455e-03
  1.0437839e-01   5.7735626e-04
  9.8827155e-03   2.9522565e-03
  9.3370872e-03   3.7413484e-03
  3.1768776e-02   2.5002034e-03
  1.7785337e-02   4.3261885e-03
 -6.9522359e-03   6.4464123e-03
 -8.2029905e-03   2.7149960e-03
  1.2529639e-02   1.5142156e-03
  1.3648489e-02   3.1299281e-03
 -1.0999482e-02   1.8466313e-03
 -1.4170566e-02   7.9909861e-03
 -2.0711636e-02   4.1018546e-04
  2.9383864e-05   1.1323572e-03
 -1.1300076e-03   1.3267955e-04
 -4.1262425e-02   2.2180444e-03
 -8.0966234e-02   1.8595370e-04
 -9.1227982e-03   1.7259370e-03
  1.6323349e-01   1.7298762e-03
  2.2140445e-02   2.6722299e-04
  1.9933563e-01   2.9987606e-04
  1.7600473e-02   3.6148999e-03
  2.5465330e-02   3.6640577e-03
  3.1931445e-02   4.7776657e-03
  3.5413220e-03   4.1181035e-03
 -1.8145804e-01   1.0890929e-03
  1.1304720e-02   3.0421391e-03
  5.4043024e-03   2.3681088e-03
  1.9123185e-02   1.3017104e-03
  1.2355739e-02   1.2380675e-03
  5.6148143e-03   9.7671174e-04
  1.6311908e-02   6.6441571e-04
 -8.4656533e-03   1.2279820e-03
 -3.7400951e-03   3.2866052e-03
 -3.1412058e-02   1.7016233e-03
  7.2652772e-03   2.9997127e-03
  6.9120750e-03   2.6790658e-03
  2.7091396e-03   9.5990993e-04
  5.3687077e-02   1.4491209e-03
 -1.7797562e-01   8.2597882e-04
 -5.0891005e-03   3.3393214e-03
 -1.2022761e-02   2.5949285e-03
  6.2650494e-02   6.5495404e-03
  7.7742152e-02   1.4882180e-03
  2.4601938e-02   3.1828363e-03
 -2.5443034e-02   2.3871763e-03
 -1.7247733e-02   2.3099843e-03
 -6.4329915e-03   3.5386179e-03
 -5.7382026e-04   2.5312928e-03
  2.9517158e-03   5.2713635e-03
 -2.4235571e-02   4.5548514e-03
  3.2944864e-01   3.2178970e-04
  1.6760925e-02   2.6425824e-03
 -1.5028279e-02   1.4940959e-03
  4.2712439e-02   2.1488511e-03
  1.7463014e-03   1.9882275e-03
  9.5875703e-02   4.2612801e-04
  2.1684421e-02   9.2259829e-04
  3.5922993e-02   2.7698539e-03
  3.0734735e-02   1.9756583e-03
 -1.8544545e-02   1.4308874e-03
 -1.1356516e-02   5.2970056e-03
 -1.9564552e-02   3.4940045e-03
 -4.2280175e-02   3.4532326e-03
  1.1952150e-01   2.7789385e-04
 -3.4834348e-02   1.1485997e-03
 -2.3743864e-03   5.9615080e-03
 -3.7291345e-01   3.9664970e-04
  7.6885968e-01   6.4981467e-04
 -1.8453784e-02   8.5427146e-03
  2.2036755e-02   7.9092449e-03
  2.0858286e-02   2.2689800e-03
 -4.5827660e-03   3.6327029e-03
 -1.2166156e-02   6.7689139e-03
 -3.8359299e-02   3.6436100e-03
  6.4049937e-02   3.1880077e-03
  1.7231796e-02   6.2085898e-03
 -3.3513892e-02   5.4503735e-03
 -7.4463412e-03   7.9372404e-03
  2.0641560e-02   4.4696960e-03
  2.8072814e-02   6.8657044e-03
 -4.6736840e-04   5.4122517e-03
 -2.1159533e-02   4.0054549e-03
 -3.3218689e-02   8.4041264e-03
 -1.9167233e-02   2.8478103e-03
 -1.4901377e-02   2.4124354e-03
 -2.3095954e-02   6.4606406e-03
  3.3087935e-03   4.5612673e-03
 -5.3363048e-02   3.4684658e-03
 -2.9494395e-03   3.6824201e-03
 -6.7924708e-04   1.2065983e-02
  6.6967197e-03   5.8681588e-03
  2.8272083e-02   3.4649654e-03
 -2.6129798e-03   5.2427636e-03
  1.2604523e-02   3.2477689e-03
 -4.8744027e-03   4.6994649e-03
  1.1057314e-02   6.4062728e-03
  4.9156681e-01   1.9162669e-04
 -5.4701459e-02   3.7534002e-03
  2.3937078e-02   5.8146273e-03
  7.0431936e-01   2.2847575e-04
 -2.5645322e-01   1.8961751e-04
 -2.0382342e+00   5.6020834e-04
  1.2303341e-01   1.8662954e-04
 -1.4195123e+00   3.7265994e-04
  7.2807044e-02   9.4737444e-04
 -8.7412322e-01   3.0231322e-04
  4.5148087e-01   4.8461393e-04
 -6.3536072e-01   3.7568854e-05
 -6.4029837e-01   2.1686750e-03
  7.4715251e-01   2.2411800e-03
 -8.2811922e-01   3.2479542e-03
 -1.5363233e+00   5.7325483e-04
 -1.3566129e-01   2.6794444e-03
 -2.8877936e-02   2.6366548e-03
  1.1488661e-01   8.3019008e-04
 -3.8572508e-01   8.6370186e-04
 -7.0614314e-01   1.2914467e-03
 -6.0432601e-01   1.9448267e-03
  2.2258856e+00   1.5419784e-03
 -1.7315023e-01   8.9424575e-04
  1.3747674e-02   6.5220532e-04
  1.4785275e-01   1.1077877e-03
 -1.4713887e+00   4.8813017e-04
 -1.7403959e-01   2.7596368e-03
 -1.3256862e+00   4.0521594e-05
  1.3114908e+00   2.3577230e-04
  2.3490600e-02   1.7116570e-04
 -2.6771721e-01   2.8867130e-03
  1.8119997e-01   3.2856944e-04
 -4.0927064e-02   6.9870632e-03
 -2.7922443e-03   1.7191377e-03
 -3.4439436e-01   1.7641611e-04
  6.3282311e-01   3.1546915e-03
  7.3300595e-03   1.0420547e-03
 -9.2131771e-02   4.3107606e-03
 -1.7674743e-01   1.1234208e-03
  4.4398627e-01   4.3824440e-04
  3.2211639e-02   1.1355205e-03
 -1.3046485e-02   9.1698603e-04
 -9.2656668e-03   3.2664561e-03
  2.0097785e-01   1.1669075e-03
 -1.5676318e-02   2.7938958e-03
 -6.7126542e-02   6.6542360e-03
 -3.0654433e-01   2.7249742e-04
  5.6322422e-03   6.9912360e-04
 -1.6199452e-01   7.9788774e-04
 -2.5430426e-01   1.2041854e-03
 -2.3336522e-02   6.5783091e-04
 -2.0966792e-01   8.5755350e-04
  1.5407403e-01   7.5008866e-04
  3.7843630e-01   5.6422426e-04
 -4.7873810e-01   2.9330325e-04
 -2.0114705e-02   1.9664443e-03
 -1.7417928e-02   1.7198969e-03
  9.5507339e-02   5.1446888e-03
  8.0243102e-04   4.9610846e-03
 -2.1101590e-03   4.1320734e-03
 -7.9376902e-03   7.3781544e-03
  2.5095369e-03   4.3736161e-03
 -1.3575035e-02   2.3558929e-03
  1.9145937e-01   6.1569018e-03
  6.4497264e-03   2.5408634e-03
 -7.6391034e-02   3.7312548e-04
  5.3646052e-03   7.9501281e-04
 -3.1353389e-03   8.2871541e-03
  4.1521542e-02   6.9553708e-04
 -2.1289386e-02   1.2628649e-03
  1.0114655e-01   2.6744695e-03
  2.9963382e-02   9.2555495e-04
  6.1494978e-03   6.1862241e-04
 -1.5858883e-02   5.4692395e-04
  7.8095892e-04   3.0288119e-03
 -1.9282145e-02   1.1683425e-03
  5.2525427e-02   1.0294779e-03
 -5.3184796e-02   2.7474507e-03
  1.3112642e-02   2.5708294e-03
 -4.4398032e-02   3.3174225e-03
 -3.7078946e-04   2.0595957e-03
  4.2780980e-02   4.6192501e-03
 -5.1745605e-02   3.0009979e-03
  3.0197358e-02   2.9893608e-03
 -1.4643975e-03   7.8763400e-04
  2.6643746e-02   1.9142532e-03
 -1.5585573e-01   5.2693643e-04
 -2.3037355e-02   4.0945415e-03
  2.3972103e-02   1.0583973e-02
  1.2723414e-02   4.3893829e-03
  4.3385429e-03   5.3627818e-04
 -3.3885521e-01   1.6038885e-03
 -4.9336180e-02   1.7921758e-03
 -3.2284106e-03   2.3885395e-03
 -2.7146628e-03   9.1100630e-04
 -3.1283379e-02   1.0423146e-03
  2.5594542e-02   2.1134899e-03
 -3.6707666e-02   4.4871710e-04
 -3.3508120e-03   5.5152923e-04
  5.6761958e-02   4.1964608e-03
 -9.6580554e-03   1.4888600e-03
 -2.9563032e-02   4.5054359e-03
 -6.6147679e-03   3.7475911e-03
  2.1511974e-02   2.3270366e-03
 -1.9397087e-02   1.1375687e-02
 -2.3531860e-01   1.9402303e-03
  8.5093394e-05   4.0905864e-04
  3.9907172e-03   4.6935170e-03
  8.1049792e-02   4.1246833e-03
  5.8245645e-03   1.2816325e-03
  3.3130413e-03   2.8228911e-03
 -7.9959035e-03   6.6149961e-03
 -2.7169907e-02   3.5896758e-03
 -2.4405499e-03   3.8583821e-03
 -6.9323683e-04   5.2417056e-03
 -4.3742806e-02   2.7906208e-03
 -1.9332729e-02   2.4299291e-03
 -6.7352749e-02   9.0386078e-04
 -1.5220022e-02   9.7775282e-03
 -1.0729565e-02   2.1869044e-03
 -2.7893851e-02   2.2066368e-03
 -1.2627386e-02   5.4996405e-03
  8.0170207e-02   7.5866719e-04
 -3.2515328e-02   3.2685958e-03
  4.1673807e-03   1.0098999e-03
 -1.3570605e-02   5.3464957e-03
 -6.1529942e-02   2.7932308e-03
  2.1219693e-02   1.4576968e-03
 -3.2436132e-02   4.1478388e-03
 -2.0705848e-03   6.0281451e-03
 -6.8383746e-02   2.8498634e-03
 -8.8303648e-03   1.9437363e-03
 -7.6334984e-03   4.7664791e-03
 -2.5538346e-02   4.7468040e-03
  2.2797289e-03   2.1907502e-04
  3.2257866e-02   8.6716667e-04
  5.7297874e-02   1.1007928e-03
  2.7113792e-01   4.7128796e-04
 -9.2706541e-03   8.5188495e-04
 -8.2525229e-03   5.9512584e-04
 -1.3252081e-01   1.0196447e-03
 -1.0478861e-02   8.6037681e-04
 -1.6577227e-02   1.8509048e-04
 -5.9404306e-02   6.1161658e-03
  4.0115338e-02   1.2139353e-03
 -3.6835605e-03   3.3504432e-03
 -5.3688064e-03   4.2006643e-03
 -1.9659773e-03   2.3404702e-03
  9.9765062e-03   7.5103110e-03
 -2.8068891e-02   2.3730951e-03
 -7.5741527e-03   6.8345957e-04
  4.0302947e-02   2.2728331e-03
 -5.4492722e-03   1.6143550e-03
 -2.0030227e-02   1.6669441e-03
 -1.5243031e-02   1.1138488e-03
 -2.6386812e-02   1.2860592e-03
 -3.8940888e-02   3.9341361e-03
 -1.7952574e-03   3.2796382e-03
  1.0135680e-02   4.7079702e-03
  1.5355669e-01   5.2392529e-04
 -1.7950761e-03   1.2013561e-03
  4.2591500e-03   4.8663272e-04
 -3.6647939e-03   3.2787092e-03
  1.7061068e-02   3.7544903e-03
 -7.6097384e-02   2.7795024e-03
 -1.3272823e-02   1.3461617e-03
 -1.5579412e-03   4.6260812e-04
 -9.8534664e-03   1.5824183e-03
 -2.9757576e-02   2.0848836e-03
 -9.7748777e-03   3.2297042e-03
  7.9330571e-02   3.4435000e-03
  2.4900287e-02   2.9795826e-03
 -1.1000821e-02   6.0534016e-03
 -5.9117783e-02   1.9298457e-03
  3.8191682e-04   4.3523111e-03
 -2.5504919e-02   1.7591718e-03
 -1.3396568e-02   8.0611743e-03
 -1.0473534e-02   2.0639808e-03
  1.3963737e-03   2.4492170e-03
  7.7743996e-03   3.0954606e-03
  1.3118355e-03   3.4380418e-03
  1.4794186e-01   3.0286778e-03
 -1.5915319e-02   1.7299361e-03
  3.7504271e-02   2.3595688e-03
  2.1686690e-02   2.6556267e-03
 -7.2993240e-03   2.8779351e-03
  3.2285474e-02   2.5787973e-03
  3.4209020e-02   3.1481306e-03
  8.7551974e-02   6.4726826e-03
 -5.4575661e-03   2.7014301e-03
 -5.0385173e-02   5.6097247e-03