Input Error:
    File:       main_nep/structure.cu
    Line:       392
    Error text: The first line for each frame should have one value.

***************************************************************
*                 Welcome to use GPUMD                        *
*    (Graphics Processing Units Molecular Dynamics)           *
*                     Version 3.8                             *
*              This is the nep executable                     *
***************************************************************


---------------------------------------------------------------
GPU information:
---------------------------------------------------------------

number of GPUs = 2
Device id:                   0
    Device name:             NVIDIA GeForce RTX 3090
    Compute capability:      8.6
    Amount of global memory: 23.6911 GB
    Number of SMs:           82
Device id:                   1
    Device name:             NVIDIA GeForce RTX 3090
    Compute capability:      8.6
    Amount of global memory: 23.6911 GB
    Number of SMs:           82
GPU-0 cannot access GPU-1.
GPU-1 cannot access GPU-0.

---------------------------------------------------------------
Started running nep.
---------------------------------------------------------------


---------------------------------------------------------------
Started reading nep.in.
---------------------------------------------------------------

Input or default parameters:
    (default) model_type = potential.
    (default) calculation mode = train.
    (input)   use NEP version 4.
    (input)   number of atom types = 2.
        (default) type 0 (Cu with Z = 29) has force weight of 1.
        (default) type 1 (Se with Z = 34) has force weight of 1.
    (default) will not add the ZBL potential.
    (input)   radial cutoff = 7 A.
    (input)   angular cutoff = 5 A.
    (input)   n_max_radial = 8.
    (input)   n_max_angular = 6.
    (input)   basis_size_radial = 12.
    (input)   basis_size_angular = 12.
    (input)   l_max_3body = 4.
    (input)   l_max_4body = 2.
    (input)   l_max_5body = 0.
    (input)   number of neurons = 50.
    (default) lambda_1 = -1.
    (default) lambda_2 = -1.
    (input)   lambda_e = 1.
    (input)   lambda_f = 1.
    (input)   lambda_v = 0.2.
    (default) lambda_shear = 1.
    (default) force_delta = 0.
    (input)   batch size = 1000.
    (input)   population size = 50.
    (input)   maximum number of generations = 10000.
Some calculated parameters:
    number of radial descriptor components = 9.
    number of angular descriptor components = 35.
    total number of descriptor components = 44.
    NN architecture = 44-50-1.
    number of NN parameters to be optimized = 4601.
    number of descriptor parameters to be optimized = 832.
    total number of parameters to be optimized = 5433.

---------------------------------------------------------------
Finished reading nep.in.
---------------------------------------------------------------


---------------------------------------------------------------
Started reading train.xyz.
---------------------------------------------------------------


***************************************************************
*                 Welcome to use GPUMD                        *
*    (Graphics Processing Units Molecular Dynamics)           *
*                     Version 3.8                             *
*              This is the nep executable                     *
***************************************************************


---------------------------------------------------------------
GPU information:
---------------------------------------------------------------

number of GPUs = 2
Device id:                   0
    Device name:             NVIDIA GeForce RTX 3090
    Compute capability:      8.6
    Amount of global memory: 23.6911 GB
    Number of SMs:           82
Device id:                   1
    Device name:             NVIDIA GeForce RTX 3090
    Compute capability:      8.6
    Amount of global memory: 23.6911 GB
    Number of SMs:           82
GPU-0 cannot access GPU-1.
GPU-1 cannot access GPU-0.

---------------------------------------------------------------
Started running nep.
---------------------------------------------------------------


---------------------------------------------------------------
Started reading nep.in.
---------------------------------------------------------------

Input or default parameters:
    (default) model_type = potential.
    (default) calculation mode = train.
    (input)   use NEP version 4.
    (input)   number of atom types = 2.
        (default) type 0 (Cu with Z = 29) has force weight of 1.
        (default) type 1 (Se with Z = 34) has force weight of 1.
    (default) will not add the ZBL potential.
    (input)   radial cutoff = 7 A.
    (input)   angular cutoff = 5 A.
    (input)   n_max_radial = 8.
    (input)   n_max_angular = 6.
    (input)   basis_size_radial = 12.
    (input)   basis_size_angular = 12.
    (input)   l_max_3body = 4.
    (input)   l_max_4body = 2.
    (input)   l_max_5body = 0.
    (input)   number of neurons = 50.
    (default) lambda_1 = -1.
    (default) lambda_2 = -1.
    (input)   lambda_e = 1.
    (input)   lambda_f = 1.
    (input)   lambda_v = 0.2.
    (default) lambda_shear = 1.
    (default) force_delta = 0.
    (input)   batch size = 1000.
    (input)   population size = 50.
    (input)   maximum number of generations = 10000.
Some calculated parameters:
    number of radial descriptor components = 9.
    number of angular descriptor components = 35.
    total number of descriptor components = 44.
    NN architecture = 44-50-1.
    number of NN parameters to be optimized = 4601.
    number of descriptor parameters to be optimized = 832.
    total number of parameters to be optimized = 5433.

---------------------------------------------------------------
Finished reading nep.in.
---------------------------------------------------------------


---------------------------------------------------------------
Started reading train.xyz.
---------------------------------------------------------------

Number of configurations = 470.
Number of devices = 2
Number of batches = 1
Hello, I changed the batch_size from 1000 to 470.

Batch 0:
Number of configurations = 470.

---------------------------------------------------------------
Constructing train_set in device  0.
Total number of atoms = 163820.
Number of atoms in the largest configuration = 596.
Number of configurations having virial = 470.
Radial descriptor with a cutoff of 7 A:
    Minimum number of neighbors for one atom = 63.
    Maximum number of neighbors for one atom = 100.
Angular descriptor with a cutoff of 5 A:
    Minimum number of neighbors for one atom = 20.
    Maximum number of neighbors for one atom = 44.
---------------------------------------------------------------


---------------------------------------------------------------
Constructing train_set in device  1.
Total number of atoms = 163820.
Number of atoms in the largest configuration = 596.
Number of configurations having virial = 470.
Radial descriptor with a cutoff of 7 A:
    Minimum number of neighbors for one atom = 63.
    Maximum number of neighbors for one atom = 100.
Angular descriptor with a cutoff of 5 A:
    Minimum number of neighbors for one atom = 20.
    Maximum number of neighbors for one atom = 44.
---------------------------------------------------------------


---------------------------------------------------------------
Started reading test.xyz.
---------------------------------------------------------------

Number of configurations = 170.

---------------------------------------------------------------
Constructing test_set in device  0.
Total number of atoms = 50240.
Number of atoms in the largest configuration = 596.
Number of configurations having virial = 170.
Radial descriptor with a cutoff of 7 A:
    Minimum number of neighbors for one atom = 63.
    Maximum number of neighbors for one atom = 95.
Angular descriptor with a cutoff of 5 A:
    Minimum number of neighbors for one atom = 20.
    Maximum number of neighbors for one atom = 40.
---------------------------------------------------------------


---------------------------------------------------------------
Constructing test_set in device  1.
Total number of atoms = 50240.
Number of atoms in the largest configuration = 596.
Number of configurations having virial = 170.
Radial descriptor with a cutoff of 7 A:
    Minimum number of neighbors for one atom = 63.
    Maximum number of neighbors for one atom = 95.
Angular descriptor with a cutoff of 5 A:
    Minimum number of neighbors for one atom = 20.
    Maximum number of neighbors for one atom = 40.
---------------------------------------------------------------


---------------------------------------------------------------
Time used for initialization = 0.461312 s.
---------------------------------------------------------------


---------------------------------------------------------------
Started training.
---------------------------------------------------------------

Step    Total-Loss L1Reg-Loss L2Reg-Loss RMSE-E-Train RMSE-F-Train RMSE-V-Train RMSE-E-Test  RMSE-F-Test  RMSE-V-Test  
100     0.43630    0.07832    0.09678    0.00771      0.23145      0.11022      0.00909      0.18971      0.13297      
200     0.41622    0.08062    0.10043    0.00912      0.20827      0.08892      0.00912      0.18509      0.10394      
300     0.42719    0.08811    0.10971    0.01771      0.18758      0.12040      0.01076      0.17513      0.15351      
400     0.41186    0.08838    0.11121    0.00837      0.18698      0.08459      0.00730      0.17099      0.05237      
500     0.43213    0.09605    0.12095    0.00906      0.18428      0.10890      0.00568      0.16146      0.06098      
600     0.42062    0.09701    0.12192    0.00703      0.17860      0.08027      0.00838      0.16225      0.10333      
700     0.43444    0.10364    0.12986    0.01112      0.17155      0.09140      0.01314      0.14952      0.07396      
800     0.43490    0.10600    0.13335    0.01028      0.17214      0.06562      0.01040      0.17155      0.08188      
900     0.47572    0.11834    0.14899    0.01179      0.18444      0.06076      0.00955      0.17270      0.08252      
1000    0.48928    0.12408    0.15640    0.00902      0.17949      0.10146      0.00952      0.17759      0.14200      
1100    0.46054    0.11858    0.14973    0.00664      0.16790      0.08848      0.00733      0.14730      0.08363      
1200    0.50332    0.13150    0.16616    0.01151      0.17562      0.09268      0.00978      0.16267      0.06485      
1300    0.46488    0.12292    0.15584    0.00842      0.16856      0.04565      0.00924      0.15333      0.03815      
1400    0.51829    0.13918    0.17553    0.01027      0.17832      0.07492      0.01141      0.17072      0.09321      
1500    0.49050    0.13303    0.16827    0.00910      0.16452      0.07794      0.00858      0.14338      0.09264      
1600    0.47264    0.12922    0.16379    0.00891      0.16029      0.05211      0.00975      0.14153      0.04696      
1700    0.45831    0.12674    0.16006    0.00923      0.15504      0.03621      0.00959      0.13984      0.03784      
1800    0.48676    0.13521    0.17173    0.01440      0.15360      0.05909      0.00807      0.14494      0.06242      
1900    0.45645    0.12821    0.16205    0.00647      0.15208      0.03819      0.00820      0.13750      0.03281      
2000    0.46919    0.13299    0.16788    0.00772      0.14893      0.05835      0.00959      0.13876      0.05878      
2100    0.48098    0.13715    0.17341    0.01040      0.14776      0.06129      0.00850      0.13737      0.06648      
2200    0.45669    0.13141    0.16604    0.00470      0.14094      0.06802      0.00483      0.12770      0.06462      
2300    0.45878    0.13268    0.16798    0.00818      0.13980      0.05064      0.00741      0.12418      0.04161      
2400    0.44224    0.12886    0.16262    0.00470      0.13756      0.04250      0.00457      0.12397      0.04497      
2500    0.45898    0.13458    0.16938    0.00687      0.13904      0.04556      0.00644      0.12484      0.04822      
2600    0.44501    0.13108    0.16522    0.00643      0.13526      0.03511      0.00559      0.11879      0.04343      
2700    0.45375    0.13421    0.16957    0.01070      0.13359      0.02840      0.00945      0.12284      0.03259      
2800    0.44737    0.13279    0.16841    0.00634      0.12919      0.05319      0.00711      0.11428      0.05023      
2900    0.46143    0.13778    0.17493    0.00749      0.13361      0.03811      0.00797      0.12049      0.03892      
3000    0.45242    0.13553    0.17244    0.00527      0.13169      0.03746      0.00618      0.12240      0.04074      
3100    0.44984    0.13582    0.17247    0.00812      0.12397      0.04729      0.00830      0.11472      0.02556      
3200    0.44677    0.13531    0.17179    0.00475      0.12730      0.03813      0.00573      0.11837      0.02649      
3300    0.42665    0.12961    0.16486    0.00657      0.11745      0.04082      0.00727      0.11242      0.03444      
3400    0.44971    0.13720    0.17481    0.00691      0.11932      0.05730      0.00679      0.10968      0.06865      
3500    0.44767    0.13696    0.17430    0.00397      0.12138      0.05532      0.00468      0.10913      0.05181      
3600    0.42548    0.13010    0.16636    0.00682      0.11558      0.03314      0.00756      0.10597      0.03870      
3700    0.40911    0.12592    0.16039    0.00616      0.11111      0.02765      0.00685      0.10270      0.03247      
3800    0.43341    0.13346    0.17015    0.00603      0.11620      0.03785      0.00596      0.11009      0.04290      
3900    0.44340    0.13731    0.17458    0.00462      0.11973      0.03584      0.00532      0.10829      0.03743      
4000    0.45525    0.14115    0.17983    0.00608      0.11912      0.04530      0.00599      0.10519      0.05258      
4100    0.41759    0.12960    0.16555    0.00496      0.11032      0.03574      0.00456      0.10173      0.03267      
4200    0.42690    0.13283    0.16981    0.00590      0.10987      0.04239      0.00712      0.09922      0.03638      
4300    0.42691    0.13328    0.17040    0.00650      0.11126      0.02738      0.00743      0.10225      0.03234      
4400    0.40331    0.12617    0.16123    0.00420      0.10662      0.02545      0.00427      0.09473      0.02466      
4500    0.42093    0.13208    0.16862    0.00507      0.10898      0.03087      0.00520      0.09684      0.03421      
4600    0.41651    0.13072    0.16711    0.00534      0.10500      0.04174      0.00495      0.09354      0.05024      
4700    0.42439    0.13324    0.17073    0.00489      0.11010      0.02717      0.00492      0.09724      0.02849      
4800    0.41190    0.12950    0.16643    0.00469      0.10586      0.02715      0.00525      0.09617      0.02746      
4900    0.41359    0.13029    0.16757    0.00509      0.10320      0.03727      0.00509      0.09555      0.02999      
5000    0.40905    0.12909    0.16611    0.00540      0.10038      0.04028      0.00494      0.08945      0.03087      
5100    0.41538    0.13123    0.16915    0.00394      0.10314      0.03965      0.00383      0.09152      0.03225      
5200    0.41039    0.13008    0.16714    0.00656      0.10113      0.02744      0.00451      0.09047      0.02790      
5300    0.41698    0.13206    0.17039    0.00553      0.10305      0.02976      0.00544      0.09243      0.02803      
5400    0.41841    0.13266    0.17118    0.00461      0.10397      0.02992      0.00487      0.09385      0.03662      
5500    0.41208    0.13063    0.16902    0.00622      0.10093      0.02639      0.00739      0.09231      0.02853      
5600    0.41489    0.13173    0.17042    0.00399      0.10288      0.02931      0.00430      0.09462      0.03315      
5700    0.41747    0.13265    0.17198    0.00378      0.10108      0.03991      0.00340      0.09264      0.03771      
5800    0.40513    0.12869    0.16707    0.00344      0.09861      0.03663      0.00380      0.08937      0.03388      
5900    0.40053    0.12741    0.16523    0.00327      0.09902      0.02796      0.00378      0.08954      0.02798      
6000    0.41093    0.13078    0.16952    0.00394      0.10104      0.02824      0.00458      0.08949      0.02374      
6100    0.39258    0.12517    0.16203    0.00317      0.09811      0.02050      0.00340      0.08896      0.02103      
6200    0.40431    0.12904    0.16717    0.00405      0.09833      0.02860      0.00557      0.08926      0.03455      
6300    0.40275    0.12850    0.16637    0.00323      0.09971      0.02468      0.00360      0.09045      0.02396      
6400    0.38983    0.12473    0.16105    0.00392      0.09478      0.02669      0.00431      0.08712      0.02749      
6500    0.38773    0.12388    0.16068    0.00364      0.09452      0.02502      0.00379      0.08411      0.02732      
6600    0.39543    0.12650    0.16390    0.00408      0.09623      0.02363      0.00501      0.08671      0.02054      
6700    0.40286    0.12928    0.16720    0.00360      0.09648      0.03152      0.00446      0.08757      0.03218      
6800    0.41066    0.13205    0.17085    0.00403      0.09920      0.02268      0.00416      0.08938      0.02345      
6900    0.40603    0.13072    0.16922    0.00418      0.09586      0.03027      0.00419      0.08835      0.03253      
7000    0.39813    0.12788    0.16559    0.00407      0.09623      0.02180      0.00424      0.08676      0.02311      
7100    0.38575    0.12429    0.16065    0.00337      0.09290      0.02271      0.00366      0.08236      0.02608      
7200    0.39911    0.12868    0.16626    0.00340      0.09621      0.02281      0.00324      0.08653      0.02417      
7300    0.39668    0.12795    0.16551    0.00489      0.09328      0.02527      0.00518      0.08398      0.02468      
7400    0.38962    0.12607    0.16269    0.00321      0.09321      0.02223      0.00291      0.08390      0.02565      
7500    0.39545    0.12817    0.16512    0.00378      0.09416      0.02105      0.00406      0.08365      0.02052      
7600    0.39121    0.12675    0.16333    0.00398      0.09302      0.02064      0.00389      0.08414      0.01889      
7700    0.40394    0.13079    0.16898    0.00377      0.09306      0.03669      0.00399      0.08245      0.03840      
7800    0.38564    0.12481    0.16152    0.00334      0.09240      0.01784      0.00329      0.08221      0.01905      
7900    0.38666    0.12526    0.16207    0.00433      0.09140      0.01797      0.00451      0.08199      0.01796      
8000    0.39358    0.12787    0.16509    0.00378      0.09176      0.02538      0.00338      0.08245      0.02764      
8100    0.37540    0.12206    0.15765    0.00327      0.08883      0.01798      0.00344      0.07992      0.02019      
8200    0.38660    0.12572    0.16251    0.00347      0.09089      0.02002      0.00301      0.08144      0.01982      
8300    0.38807    0.12638    0.16309    0.00378      0.09042      0.02205      0.00426      0.08169      0.02307      
8400    0.38609    0.12586    0.16243    0.00324      0.09075      0.01907      0.00317      0.08124      0.02237      
8500    0.39860    0.13002    0.16780    0.00387      0.09201      0.02451      0.00488      0.08131      0.02168      
8600    0.38652    0.12605    0.16277    0.00342      0.09056      0.01854      0.00359      0.08124      0.02079      
8700    0.38790    0.12665    0.16336    0.00353      0.09029      0.02033      0.00393      0.08165      0.02155      
8800    0.38899    0.12688    0.16401    0.00405      0.09016      0.01943      0.00367      0.08136      0.01883      
8900    0.38698    0.12612    0.16349    0.00361      0.08935      0.02204      0.00388      0.08136      0.02467      
9000    0.38026    0.12407    0.16015    0.00289      0.08864      0.02248      0.00335      0.08057      0.02381      
9100    0.38139    0.12439    0.16100    0.00337      0.08804      0.02303      0.00410      0.08051      0.02587      
9200    0.37512    0.12224    0.15822    0.00266      0.08696      0.02522      0.00324      0.07777      0.02797      
9300    0.38070    0.12425    0.16051    0.00368      0.08868      0.01786      0.00437      0.07985      0.01796      
9400    0.37794    0.12277    0.15963    0.00252      0.08776      0.02629      0.00278      0.07881      0.02019      
9500    0.37702    0.12274    0.15923    0.00315      0.08783      0.02035      0.00342      0.08028      0.02374      
9600    0.37123    0.12079    0.15680    0.00258      0.08675      0.02158      0.00278      0.07869      0.02158      
9700    0.36963    0.12019    0.15610    0.00221      0.08691      0.02109      0.00248      0.08010      0.02222      
9800    0.37959    0.12342    0.16017    0.00363      0.08810      0.02133      0.00354      0.08143      0.01857      
9900    0.36928    0.12013    0.15595    0.00292      0.08588      0.02199      0.00317      0.07795      0.01645      
10000   0.36562    0.11896    0.15416    0.00260      0.08590      0.02003      0.00268      0.07708      0.02026      

---------------------------------------------------------------
Time used for training = 5047.866211 s.
---------------------------------------------------------------


---------------------------------------------------------------
Finished running nep.
---------------------------------------------------------------


***************************************************************
*                 Welcome to use GPUMD                        *
*    (Graphics Processing Units Molecular Dynamics)           *
*                     Version 3.8                             *
*              This is the nep executable                     *
***************************************************************


---------------------------------------------------------------
GPU information:
---------------------------------------------------------------

number of GPUs = 2
Device id:                   0
    Device name:             NVIDIA GeForce RTX 3090
    Compute capability:      8.6
    Amount of global memory: 23.6911 GB
    Number of SMs:           82
Device id:                   1
    Device name:             NVIDIA GeForce RTX 3090
    Compute capability:      8.6
    Amount of global memory: 23.6911 GB
    Number of SMs:           82
GPU-0 cannot access GPU-1.
GPU-1 cannot access GPU-0.

---------------------------------------------------------------
Started running nep.
---------------------------------------------------------------


---------------------------------------------------------------
Started reading nep.in.
---------------------------------------------------------------

Input or default parameters:
    (default) model_type = potential.
    (default) calculation mode = train.
    (input)   use NEP version 4.
    (input)   number of atom types = 2.
        (default) type 0 (Cu with Z = 29) has force weight of 1.
        (default) type 1 (Se with Z = 34) has force weight of 1.
    (default) will not add the ZBL potential.
    (input)   radial cutoff = 7 A.
    (input)   angular cutoff = 5 A.
    (input)   n_max_radial = 8.
    (input)   n_max_angular = 6.
    (input)   basis_size_radial = 12.
    (input)   basis_size_angular = 12.
    (input)   l_max_3body = 4.
    (input)   l_max_4body = 2.
    (input)   l_max_5body = 0.
    (input)   number of neurons = 50.
    (default) lambda_1 = -1.
    (default) lambda_2 = -1.
    (input)   lambda_e = 1.
    (input)   lambda_f = 1.
    (input)   lambda_v = 0.2.
    (default) lambda_shear = 1.
    (default) force_delta = 0.
    (input)   batch size = 1000.
    (input)   population size = 50.
    (input)   maximum number of generations = 10000.
Some calculated parameters:
    number of radial descriptor components = 9.
    number of angular descriptor components = 35.
    total number of descriptor components = 44.
    NN architecture = 44-50-1.
    number of NN parameters to be optimized = 4601.
    number of descriptor parameters to be optimized = 832.
    total number of parameters to be optimized = 5433.

---------------------------------------------------------------
Finished reading nep.in.
---------------------------------------------------------------


---------------------------------------------------------------
Started reading train.xyz.
---------------------------------------------------------------

Number of configurations = 470.
Number of devices = 2
Number of batches = 1
Hello, I changed the batch_size from 1000 to 470.

Batch 0:
Number of configurations = 470.

---------------------------------------------------------------
Constructing train_set in device  0.
Total number of atoms = 163820.
Number of atoms in the largest configuration = 596.
Number of configurations having virial = 470.
Radial descriptor with a cutoff of 7 A:
    Minimum number of neighbors for one atom = 63.
    Maximum number of neighbors for one atom = 100.
Angular descriptor with a cutoff of 5 A:
    Minimum number of neighbors for one atom = 20.
    Maximum number of neighbors for one atom = 44.
---------------------------------------------------------------


---------------------------------------------------------------
Constructing train_set in device  1.
Total number of atoms = 163820.
Number of atoms in the largest configuration = 596.
Number of configurations having virial = 470.
Radial descriptor with a cutoff of 7 A:
    Minimum number of neighbors for one atom = 63.
    Maximum number of neighbors for one atom = 100.
Angular descriptor with a cutoff of 5 A:
    Minimum number of neighbors for one atom = 20.
    Maximum number of neighbors for one atom = 44.
---------------------------------------------------------------


---------------------------------------------------------------
Started reading test.xyz.
---------------------------------------------------------------

Number of configurations = 170.

---------------------------------------------------------------
Constructing test_set in device  0.
Total number of atoms = 50240.
Number of atoms in the largest configuration = 596.
Number of configurations having virial = 170.
Radial descriptor with a cutoff of 7 A:
    Minimum number of neighbors for one atom = 63.
    Maximum number of neighbors for one atom = 95.
Angular descriptor with a cutoff of 5 A:
    Minimum number of neighbors for one atom = 20.
    Maximum number of neighbors for one atom = 40.
---------------------------------------------------------------


---------------------------------------------------------------
Constructing test_set in device  1.
Total number of atoms = 50240.
Number of atoms in the largest configuration = 596.
Number of configurations having virial = 170.
Radial descriptor with a cutoff of 7 A:
    Minimum number of neighbors for one atom = 63.
    Maximum number of neighbors for one atom = 95.
Angular descriptor with a cutoff of 5 A:
    Minimum number of neighbors for one atom = 20.
    Maximum number of neighbors for one atom = 40.
---------------------------------------------------------------


---------------------------------------------------------------
Time used for initialization = 0.454784 s.
---------------------------------------------------------------


---------------------------------------------------------------
Started training.
---------------------------------------------------------------

Step    Total-Loss L1Reg-Loss L2Reg-Loss RMSE-E-Train RMSE-F-Train RMSE-V-Train RMSE-E-Test  RMSE-F-Test  RMSE-V-Test  
100     0.36913    0.12009    0.15558    0.00275      0.08696      0.01873      0.00313      0.07968      0.01942      
200     0.37073    0.12084    0.15617    0.00333      0.08646      0.01965      0.00357      0.07937      0.01994      
300     0.36502    0.11887    0.15375    0.00376      0.08490      0.01871      0.00323      0.07725      0.01682      
400     0.37122    0.12064    0.15613    0.00372      0.08654      0.02097      0.00352      0.07795      0.02116      
500     0.36639    0.11914    0.15437    0.00255      0.08631      0.02009      0.00316      0.07731      0.02133      
600     0.35788    0.11660    0.15074    0.00275      0.08470      0.01546      0.00290      0.07619      0.01617      
700     0.35706    0.11628    0.15060    0.00218      0.08487      0.01560      0.00261      0.07645      0.01633      
800     0.36133    0.11750    0.15240    0.00323      0.08475      0.01727      0.00354      0.07673      0.01714      
900     0.36119    0.11745    0.15253    0.00252      0.08540      0.01643      0.00300      0.07799      0.01680      
1000    0.35924    0.11666    0.15154    0.00289      0.08412      0.02021      0.00318      0.07682      0.01744      
1100    0.36170    0.11755    0.15257    0.00245      0.08471      0.02205      0.00290      0.07821      0.01930      
1200    0.36188    0.11763    0.15266    0.00308      0.08477      0.01870      0.00364      0.07682      0.01786      
1300    0.35406    0.11493    0.14942    0.00301      0.08286      0.01919      0.00367      0.07650      0.02012      
1400    0.35677    0.11575    0.15043    0.00315      0.08396      0.01741      0.00332      0.07702      0.01601      
1500    0.35616    0.11544    0.15022    0.00350      0.08345      0.01780      0.00374      0.07694      0.02007      
1600    0.35407    0.11478    0.14929    0.00300      0.08357      0.01715      0.00340      0.07596      0.02008      
1700    0.35385    0.11455    0.14905    0.00277      0.08390      0.01793      0.00295      0.07768      0.02032      
1800    0.34738    0.11231    0.14620    0.00309      0.08271      0.01538      0.00300      0.07633      0.01722      
1900    0.35101    0.11348    0.14778    0.00322      0.08353      0.01499      0.00352      0.07653      0.01440      
2000    0.34668    0.11200    0.14588    0.00269      0.08294      0.01586      0.00317      0.07718      0.01687      
2100    0.34835    0.11252    0.14644    0.00339      0.08301      0.01497      0.00303      0.07543      0.01635      
2200    0.34534    0.11161    0.14496    0.00303      0.08233      0.01707      0.00305      0.07434      0.01689      
2300    0.34779    0.11213    0.14599    0.00346      0.08310      0.01557      0.00303      0.07530      0.01700      
2400    0.34779    0.11221    0.14611    0.00279      0.08245      0.02114      0.00279      0.07518      0.01811      
2500    0.34542    0.11120    0.14516    0.00274      0.08312      0.01598      0.00284      0.07570      0.01812      
2600    0.34257    0.11023    0.14386    0.00252      0.08231      0.01829      0.00301      0.07529      0.02103      
2700    0.33919    0.10910    0.14225    0.00244      0.08222      0.01589      0.00239      0.07447      0.01707      
2800    0.34639    0.11176    0.14506    0.00322      0.08308      0.01635      0.00384      0.07521      0.01842      
2900    0.34390    0.11070    0.14423    0.00298      0.08206      0.01964      0.00333      0.07584      0.01754      
3000    0.34591    0.11104    0.14488    0.00256      0.08444      0.01493      0.00309      0.07756      0.01629      
3100    0.33795    0.10840    0.14137    0.00285      0.08151      0.01913      0.00287      0.07504      0.02186      
3200    0.33710    0.10820    0.14082    0.00293      0.08127      0.01946      0.00310      0.07431      0.02005      
3300    0.33621    0.10785    0.14027    0.00336      0.08139      0.01669      0.00295      0.07437      0.01897      
3400    0.33008    0.10581    0.13771    0.00205      0.08148      0.01516      0.00246      0.07408      0.01746      
3500    0.33012    0.10577    0.13771    0.00291      0.08087      0.01436      0.00327      0.07319      0.01574      
3600    0.33098    0.10588    0.13807    0.00262      0.08112      0.01650      0.00311      0.07351      0.01842      
3700    0.33333    0.10652    0.13894    0.00235      0.08150      0.02008      0.00285      0.07485      0.02197      
3800    0.33261    0.10633    0.13834    0.00296      0.08161      0.01688      0.00332      0.07511      0.01741      
3900    0.32425    0.10351    0.13481    0.00194      0.08065      0.01669      0.00241      0.07446      0.01830      
4000    0.32505    0.10405    0.13506    0.00238      0.07990      0.01828      0.00267      0.07375      0.01972      
4100    0.32147    0.10282    0.13361    0.00261      0.07870      0.01875      0.00338      0.07193      0.01870      
4200    0.32239    0.10326    0.13393    0.00209      0.07973      0.01690      0.00237      0.07293      0.02022      
4300    0.32551    0.10393    0.13477    0.00264      0.07973      0.02218      0.00295      0.07266      0.02156      
4400    0.32167    0.10298    0.13347    0.00283      0.07894      0.01725      0.00342      0.07198      0.01944      
4500    0.31965    0.10194    0.13254    0.00226      0.07908      0.01915      0.00277      0.07290      0.02200      
4600    0.32495    0.10371    0.13484    0.00261      0.08045      0.01670      0.00295      0.07469      0.01823      
4700    0.31983    0.10231    0.13283    0.00224      0.07925      0.01599      0.00276      0.07333      0.01916      
4800    0.32277    0.10308    0.13396    0.00324      0.07946      0.01521      0.00285      0.07254      0.01731      
4900    0.32220    0.10292    0.13360    0.00229      0.08007      0.01661      0.00263      0.07286      0.01680      
5000    0.32159    0.10277    0.13325    0.00306      0.07920      0.01652      0.00331      0.07320      0.01648      
5100    0.31699    0.10124    0.13136    0.00225      0.07920      0.01472      0.00265      0.07260      0.01659      
5200    0.31575    0.10046    0.13078    0.00254      0.07897      0.01501      0.00279      0.07314      0.01566      
5300    0.31405    0.09981    0.13006    0.00235      0.07844      0.01692      0.00247      0.07290      0.01756      
5400    0.31335    0.09947    0.12975    0.00239      0.07847      0.01636      0.00262      0.07262      0.01447      
5500    0.31163    0.09873    0.12916    0.00227      0.07786      0.01800      0.00248      0.07133      0.01870      
5600    0.31095    0.09847    0.12869    0.00224      0.07823      0.01657      0.00267      0.07222      0.01810      
5700    0.31425    0.09950    0.12999    0.00253      0.07873      0.01752      0.00287      0.07234      0.01494      
5800    0.31000    0.09803    0.12785    0.00243      0.07880      0.01447      0.00260      0.07328      0.01560      
5900    0.30655    0.09663    0.12611    0.00222      0.07817      0.01715      0.00226      0.07206      0.01877      
6000    0.30969    0.09759    0.12742    0.00254      0.07903      0.01560      0.00335      0.07319      0.01728      
6100    0.30556    0.09626    0.12576    0.00241      0.07797      0.01581      0.00287      0.07202      0.01865      
6200    0.30394    0.09563    0.12488    0.00190      0.07844      0.01546      0.00236      0.07281      0.01649      
6300    0.30260    0.09544    0.12406    0.00257      0.07718      0.01673      0.00271      0.07113      0.01635      
6400    0.30491    0.09582    0.12517    0.00284      0.07791      0.01585      0.00311      0.07205      0.01809      
6500    0.30077    0.09444    0.12324    0.00224      0.07814      0.01355      0.00244      0.07230      0.01443      
6600    0.30040    0.09420    0.12301    0.00199      0.07817      0.01523      0.00259      0.07191      0.01604      
6700    0.29839    0.09333    0.12191    0.00239      0.07698      0.01880      0.00293      0.07106      0.02038      
6800    0.29696    0.09292    0.12125    0.00200      0.07769      0.01555      0.00258      0.07178      0.01714      
6900    0.29590    0.09207    0.12084    0.00254      0.07759      0.01432      0.00264      0.07195      0.01642      
7000    0.29529    0.09170    0.12071    0.00227      0.07738      0.01616      0.00288      0.07167      0.01721      
7100    0.29238    0.09060    0.11939    0.00234      0.07695      0.01548      0.00286      0.07130      0.01629      
7200    0.29052    0.09010    0.11855    0.00187      0.07708      0.01457      0.00224      0.07141      0.01489      
7300    0.29278    0.09087    0.11949    0.00248      0.07712      0.01411      0.00300      0.07117      0.01476      
7400    0.29193    0.09059    0.11898    0.00196      0.07752      0.01437      0.00215      0.07187      0.01496      
7500    0.28912    0.08969    0.11757    0.00194      0.07721      0.01356      0.00224      0.07171      0.01445      
7600    0.28800    0.08914    0.11712    0.00195      0.07645      0.01671      0.00244      0.07041      0.01519      
7700    0.29043    0.08984    0.11792    0.00222      0.07689      0.01783      0.00257      0.07090      0.01878      
7800    0.28615    0.08853    0.11604    0.00205      0.07662      0.01457      0.00233      0.07071      0.01585      
7900    0.29007    0.08955    0.11756    0.00223      0.07767      0.01537      0.00272      0.07193      0.01600      
8000    0.28606    0.08837    0.11610    0.00219      0.07664      0.01381      0.00253      0.07083      0.01526      
8100    0.28706    0.08866    0.11640    0.00256      0.07663      0.01405      0.00259      0.06974      0.01427      
8200    0.28550    0.08811    0.11568    0.00238      0.07635      0.01493      0.00256      0.06988      0.01643      
8300    0.28185    0.08665    0.11413    0.00206      0.07559      0.01712      0.00243      0.06944      0.01511      
8400    0.28458    0.08762    0.11530    0.00221      0.07649      0.01482      0.00254      0.06976      0.01628      
8500    0.28286    0.08706    0.11443    0.00224      0.07635      0.01390      0.00242      0.07014      0.01352      
8600    0.27987    0.08595    0.11302    0.00227      0.07572      0.01454      0.00243      0.06942      0.01544      
8700    0.27877    0.08573    0.11251    0.00232      0.07549      0.01355      0.00241      0.06973      0.01448      
8800    0.27995    0.08614    0.11293    0.00252      0.07577      0.01298      0.00253      0.07015      0.01388      
8900    0.28023    0.08586    0.11292    0.00184      0.07658      0.01519      0.00210      0.07084      0.01627      
9000    0.27880    0.08546    0.11237    0.00197      0.07620      0.01400      0.00252      0.07027      0.01550      
9100    0.27682    0.08464    0.11130    0.00169      0.07597      0.01605      0.00201      0.06982      0.01654      
9200    0.27497    0.08408    0.11040    0.00222      0.07547      0.01402      0.00232      0.06936      0.01557      
9300    0.27441    0.08394    0.11022    0.00207      0.07524      0.01473      0.00238      0.06927      0.01668      
9400    0.27382    0.08353    0.10988    0.00191      0.07546      0.01518      0.00232      0.06961      0.01749      
9500    0.27391    0.08338    0.10976    0.00248      0.07518      0.01551      0.00304      0.06946      0.01562      
9600    0.27088    0.08229    0.10840    0.00200      0.07549      0.01347      0.00235      0.06982      0.01415      
9700    0.27182    0.08246    0.10871    0.00274      0.07460      0.01652      0.00293      0.06925      0.01612      
9800    0.26959    0.08182    0.10776    0.00280      0.07434      0.01430      0.00267      0.06898      0.01634      
9900    0.26918    0.08132    0.10750    0.00216      0.07517      0.01512      0.00251      0.06959      0.01462      
10000   0.26680    0.08042    0.10670    0.00194      0.07462      0.01556      0.00230      0.06856      0.01549      

---------------------------------------------------------------
Time used for training = 5058.759766 s.
---------------------------------------------------------------


---------------------------------------------------------------
Finished running nep.
---------------------------------------------------------------


***************************************************************
*                 Welcome to use GPUMD                        *
*    (Graphics Processing Units Molecular Dynamics)           *
*                     Version 3.8                             *
*              This is the nep executable                     *
***************************************************************


---------------------------------------------------------------
GPU information:
---------------------------------------------------------------

number of GPUs = 2
Device id:                   0
    Device name:             NVIDIA GeForce RTX 3090
    Compute capability:      8.6
    Amount of global memory: 23.6911 GB
    Number of SMs:           82
Device id:                   1
    Device name:             NVIDIA GeForce RTX 3090
    Compute capability:      8.6
    Amount of global memory: 23.6911 GB
    Number of SMs:           82
GPU-0 cannot access GPU-1.
GPU-1 cannot access GPU-0.

---------------------------------------------------------------
Started running nep.
---------------------------------------------------------------


---------------------------------------------------------------
Started reading nep.in.
---------------------------------------------------------------

Input or default parameters:
    (default) model_type = potential.
    (default) calculation mode = train.
    (input)   use NEP version 4.
    (input)   number of atom types = 2.
        (default) type 0 (Cu with Z = 29) has force weight of 1.
        (default) type 1 (Se with Z = 34) has force weight of 1.
    (default) will not add the ZBL potential.
    (input)   radial cutoff = 7 A.
    (input)   angular cutoff = 5 A.
    (input)   n_max_radial = 8.
    (input)   n_max_angular = 6.
    (input)   basis_size_radial = 12.
    (input)   basis_size_angular = 12.
    (input)   l_max_3body = 4.
    (input)   l_max_4body = 2.
    (input)   l_max_5body = 0.
    (input)   number of neurons = 50.
    (default) lambda_1 = -1.
    (default) lambda_2 = -1.
    (input)   lambda_e = 1.
    (input)   lambda_f = 1.
    (input)   lambda_v = 0.2.
    (default) lambda_shear = 1.
    (default) force_delta = 0.
    (input)   batch size = 1000.
    (input)   population size = 50.
    (input)   maximum number of generations = 10000.
Some calculated parameters:
    number of radial descriptor components = 9.
    number of angular descriptor components = 35.
    total number of descriptor components = 44.
    NN architecture = 44-50-1.
    number of NN parameters to be optimized = 4601.
    number of descriptor parameters to be optimized = 832.
    total number of parameters to be optimized = 5433.

---------------------------------------------------------------
Finished reading nep.in.
---------------------------------------------------------------


---------------------------------------------------------------
Started reading train.xyz.
---------------------------------------------------------------

Number of configurations = 470.
Number of devices = 2
Number of batches = 1
Hello, I changed the batch_size from 1000 to 470.

Batch 0:
Number of configurations = 470.

---------------------------------------------------------------
Constructing train_set in device  0.
Total number of atoms = 163820.
Number of atoms in the largest configuration = 596.
Number of configurations having virial = 470.
Radial descriptor with a cutoff of 7 A:
    Minimum number of neighbors for one atom = 63.
    Maximum number of neighbors for one atom = 100.
Angular descriptor with a cutoff of 5 A:
    Minimum number of neighbors for one atom = 20.
    Maximum number of neighbors for one atom = 44.
---------------------------------------------------------------


---------------------------------------------------------------
Constructing train_set in device  1.
Total number of atoms = 163820.
Number of atoms in the largest configuration = 596.
Number of configurations having virial = 470.
Radial descriptor with a cutoff of 7 A:
    Minimum number of neighbors for one atom = 63.
    Maximum number of neighbors for one atom = 100.
Angular descriptor with a cutoff of 5 A:
    Minimum number of neighbors for one atom = 20.
    Maximum number of neighbors for one atom = 44.
---------------------------------------------------------------


---------------------------------------------------------------
Started reading test.xyz.
---------------------------------------------------------------

Number of configurations = 170.

---------------------------------------------------------------
Constructing test_set in device  0.
Total number of atoms = 50240.
Number of atoms in the largest configuration = 596.
Number of configurations having virial = 170.
Radial descriptor with a cutoff of 7 A:
    Minimum number of neighbors for one atom = 63.
    Maximum number of neighbors for one atom = 95.
Angular descriptor with a cutoff of 5 A:
    Minimum number of neighbors for one atom = 20.
    Maximum number of neighbors for one atom = 40.
---------------------------------------------------------------


---------------------------------------------------------------
Constructing test_set in device  1.
Total number of atoms = 50240.
Number of atoms in the largest configuration = 596.
Number of configurations having virial = 170.
Radial descriptor with a cutoff of 7 A:
    Minimum number of neighbors for one atom = 63.
    Maximum number of neighbors for one atom = 95.
Angular descriptor with a cutoff of 5 A:
    Minimum number of neighbors for one atom = 20.
    Maximum number of neighbors for one atom = 40.
---------------------------------------------------------------


---------------------------------------------------------------
Time used for initialization = 0.457670 s.
---------------------------------------------------------------


---------------------------------------------------------------
Started training.
---------------------------------------------------------------

Step    Total-Loss L1Reg-Loss L2Reg-Loss RMSE-E-Train RMSE-F-Train RMSE-V-Train RMSE-E-Test  RMSE-F-Test  RMSE-V-Test  
100     0.26836    0.08103    0.10696    0.00233      0.07496      0.01540      0.00315      0.06947      0.01673      
200     0.26746    0.08071    0.10650    0.00216      0.07537      0.01364      0.00255      0.06965      0.01466      
300     0.26598    0.07996    0.10600    0.00212      0.07498      0.01453      0.00208      0.06939      0.01527      
400     0.26524    0.07982    0.10553    0.00196      0.07519      0.01369      0.00222      0.06949      0.01456      
500     0.26345    0.07924    0.10457    0.00205      0.07468      0.01452      0.00219      0.06912      0.01577      
600     0.26507    0.07968    0.10521    0.00202      0.07548      0.01344      0.00225      0.06929      0.01436      
700     0.26291    0.07877    0.10435    0.00205      0.07474      0.01498      0.00239      0.06878      0.01782      
800     0.26078    0.07797    0.10334    0.00208      0.07451      0.01444      0.00255      0.06824      0.01635      
900     0.26000    0.07757    0.10314    0.00200      0.07460      0.01343      0.00232      0.06853      0.01490      
1000    0.26225    0.07826    0.10383    0.00180      0.07552      0.01424      0.00211      0.06930      0.01545      
1100    0.26160    0.07797    0.10346    0.00207      0.07536      0.01370      0.00258      0.06970      0.01487      
1200    0.26173    0.07810    0.10355    0.00177      0.07522      0.01545      0.00213      0.06867      0.01753      
1300    0.25999    0.07767    0.10274    0.00218      0.07443      0.01486      0.00236      0.06782      0.01621      
1400    0.26018    0.07764    0.10277    0.00180      0.07500      0.01482      0.00224      0.06857      0.01544      
1500    0.26098    0.07777    0.10308    0.00249      0.07491      0.01358      0.00244      0.06897      0.01458      
1600    0.25862    0.07707    0.10187    0.00212      0.07498      0.01290      0.00242      0.06921      0.01439      
1700    0.25571    0.07599    0.10057    0.00190      0.07464      0.01303      0.00208      0.06870      0.01420      
1800    0.25606    0.07580    0.10062    0.00190      0.07488      0.01436      0.00202      0.06904      0.01569      
1900    0.25359    0.07498    0.09934    0.00215      0.07447      0.01332      0.00262      0.06911      0.01499      
2000    0.25396    0.07503    0.09948    0.00200      0.07407      0.01698      0.00208      0.06811      0.01585      
2100    0.25271    0.07449    0.09893    0.00198      0.07388      0.01717      0.00220      0.06818      0.02044      
2200    0.25047    0.07391    0.09795    0.00205      0.07381      0.01373      0.00226      0.06766      0.01524      
2300    0.24967    0.07361    0.09758    0.00170      0.07391      0.01433      0.00198      0.06777      0.01610      
2400    0.24866    0.07320    0.09709    0.00192      0.07368      0.01385      0.00224      0.06838      0.01503      
2500    0.24595    0.07231    0.09591    0.00191      0.07314      0.01337      0.00202      0.06733      0.01442      
2600    0.24690    0.07259    0.09614    0.00226      0.07300      0.01453      0.00244      0.06757      0.01680      
2700    0.24694    0.07235    0.09634    0.00215      0.07347      0.01320      0.00260      0.06761      0.01505      
2800    0.24535    0.07198    0.09563    0.00195      0.07322      0.01281      0.00233      0.06767      0.01434      
2900    0.24544    0.07221    0.09575    0.00168      0.07325      0.01275      0.00195      0.06749      0.01449      
3000    0.24727    0.07260    0.09635    0.00206      0.07369      0.01282      0.00236      0.06802      0.01438      
3100    0.24585    0.07199    0.09565    0.00223      0.07345      0.01265      0.00251      0.06758      0.01417      
3200    0.24519    0.07174    0.09534    0.00198      0.07352      0.01298      0.00233      0.06766      0.01441      
3300    0.24475    0.07174    0.09509    0.00181      0.07362      0.01248      0.00216      0.06822      0.01345      
3400    0.24414    0.07141    0.09460    0.00208      0.07361      0.01218      0.00234      0.06800      0.01392      
3500    0.24399    0.07135    0.09435    0.00179      0.07374      0.01381      0.00205      0.06752      0.01578      
3600    0.24279    0.07081    0.09386    0.00170      0.07323      0.01590      0.00191      0.06741      0.01531      
3700    0.24007    0.06989    0.09263    0.00189      0.07296      0.01353      0.00227      0.06715      0.01578      
3800    0.23889    0.06953    0.09203    0.00179      0.07290      0.01317      0.00196      0.06675      0.01396      
3900    0.23966    0.06977    0.09219    0.00192      0.07315      0.01317      0.00222      0.06770      0.01514      
4000    0.23918    0.06928    0.09190    0.00200      0.07305      0.01475      0.00229      0.06725      0.01434      
4100    0.23826    0.06878    0.09160    0.00209      0.07322      0.01284      0.00237      0.06756      0.01348      
4200    0.23592    0.06803    0.09065    0.00196      0.07281      0.01233      0.00249      0.06700      0.01376      
4300    0.23626    0.06811    0.09055    0.00191      0.07311      0.01292      0.00231      0.06781      0.01394      
4400    0.23410    0.06727    0.08991    0.00172      0.07243      0.01382      0.00204      0.06632      0.01357      
4500    0.23620    0.06810    0.09071    0.00155      0.07322      0.01310      0.00189      0.06760      0.01450      
4600    0.23466    0.06763    0.09016    0.00199      0.07204      0.01415      0.00232      0.06615      0.01407      
4700    0.23613    0.06813    0.09057    0.00172      0.07320      0.01259      0.00220      0.06706      0.01374      
4800    0.23350    0.06744    0.08942    0.00159      0.07235      0.01357      0.00190      0.06737      0.01437      
4900    0.23112    0.06645    0.08846    0.00169      0.07190      0.01308      0.00208      0.06664      0.01463      
5000    0.23134    0.06641    0.08835    0.00168      0.07251      0.01200      0.00200      0.06687      0.01256      
5100    0.22946    0.06576    0.08750    0.00162      0.07199      0.01289      0.00198      0.06641      0.01415      
5200    0.22938    0.06570    0.08746    0.00174      0.07185      0.01314      0.00208      0.06653      0.01275      
5300    0.22905    0.06567    0.08735    0.00180      0.07176      0.01229      0.00217      0.06614      0.01333      
5400    0.22906    0.06525    0.08725    0.00185      0.07184      0.01438      0.00225      0.06618      0.01558      
5500    0.23072    0.06589    0.08789    0.00191      0.07242      0.01309      0.00192      0.06692      0.01424      
5600    0.22864    0.06542    0.08710    0.00164      0.07201      0.01236      0.00198      0.06624      0.01326      
5700    0.22930    0.06572    0.08731    0.00174      0.07205      0.01239      0.00212      0.06606      0.01368      
5800    0.22844    0.06539    0.08689    0.00169      0.07188      0.01292      0.00205      0.06653      0.01376      
5900    0.22745    0.06507    0.08639    0.00167      0.07176      0.01283      0.00204      0.06549      0.01340      
6000    0.22682    0.06464    0.08608    0.00207      0.07164      0.01193      0.00237      0.06589      0.01281      
6100    0.22579    0.06401    0.08566    0.00194      0.07168      0.01252      0.00240      0.06600      0.01283      
6200    0.22591    0.06423    0.08562    0.00188      0.07164      0.01270      0.00199      0.06614      0.01312      
6300    0.22739    0.06457    0.08609    0.00209      0.07161      0.01513      0.00258      0.06666      0.01679      
6400    0.22395    0.06361    0.08453    0.00200      0.07101      0.01406      0.00250      0.06551      0.01450      
6500    0.22386    0.06365    0.08457    0.00226      0.07088      0.01250      0.00253      0.06552      0.01366      
6600    0.22430    0.06398    0.08493    0.00191      0.07111      0.01186      0.00227      0.06583      0.01231      
6700    0.22416    0.06381    0.08471    0.00230      0.07097      0.01188      0.00232      0.06530      0.01260      
6800    0.22465    0.06390    0.08485    0.00201      0.07156      0.01161      0.00247      0.06623      0.01288      
6900    0.22289    0.06294    0.08408    0.00160      0.07185      0.01213      0.00193      0.06562      0.01262      
7000    0.22154    0.06261    0.08372    0.00200      0.07072      0.01247      0.00242      0.06514      0.01389      
7100    0.22083    0.06251    0.08332    0.00178      0.07086      0.01183      0.00216      0.06464      0.01273      
7200    0.22248    0.06282    0.08385    0.00217      0.07101      0.01316      0.00235      0.06518      0.01441      
7300    0.22228    0.06274    0.08374    0.00224      0.07112      0.01218      0.00269      0.06589      0.01352      
7400    0.22228    0.06286    0.08370    0.00210      0.07097      0.01327      0.00227      0.06537      0.01432      
7500    0.22197    0.06262    0.08361    0.00213      0.07093      0.01340      0.00235      0.06573      0.01396      
7600    0.22122    0.06237    0.08341    0.00183      0.07123      0.01192      0.00221      0.06546      0.01245      
7700    0.21939    0.06171    0.08272    0.00171      0.07083      0.01211      0.00207      0.06509      0.01275      
7800    0.22031    0.06189    0.08297    0.00191      0.07113      0.01207      0.00242      0.06535      0.01206      
7900    0.21933    0.06154    0.08248    0.00188      0.07092      0.01256      0.00227      0.06507      0.01337      
8000    0.22019    0.06148    0.08249    0.00179      0.07141      0.01514      0.00218      0.06584      0.01625      
8100    0.21766    0.06070    0.08156    0.00176      0.07124      0.01198      0.00205      0.06540      0.01279      
8200    0.21614    0.06026    0.08093    0.00173      0.07080      0.01210      0.00210      0.06537      0.01281      
8300    0.21653    0.06030    0.08095    0.00176      0.07115      0.01182      0.00207      0.06558      0.01221      
8400    0.21591    0.05972    0.08062    0.00190      0.07116      0.01253      0.00197      0.06545      0.01271      
8500    0.21553    0.05969    0.08047    0.00185      0.07103      0.01246      0.00215      0.06552      0.01297      
8600    0.21481    0.05962    0.08020    0.00162      0.07074      0.01310      0.00191      0.06474      0.01332      
8700    0.21442    0.05890    0.07980    0.00191      0.07122      0.01292      0.00221      0.06543      0.01350      
8800    0.21395    0.05909    0.07992    0.00182      0.07072      0.01198      0.00196      0.06499      0.01279      
8900    0.21357    0.05903    0.07967    0.00177      0.07060      0.01258      0.00224      0.06501      0.01320      
9000    0.21375    0.05887    0.07972    0.00160      0.07090      0.01331      0.00189      0.06514      0.01405      
9100    0.21283    0.05849    0.07919    0.00172      0.07101      0.01205      0.00222      0.06523      0.01328      
9200    0.21280    0.05858    0.07916    0.00224      0.07042      0.01201      0.00232      0.06503      0.01278      
9300    0.21196    0.05826    0.07889    0.00172      0.07036      0.01371      0.00208      0.06462      0.01510      
9400    0.21105    0.05791    0.07833    0.00181      0.07033      0.01335      0.00216      0.06487      0.01384      
9500    0.20911    0.05735    0.07764    0.00159      0.07008      0.01228      0.00192      0.06436      0.01382      
9600    0.21068    0.05779    0.07810    0.00160      0.07062      0.01289      0.00176      0.06499      0.01316      
9700    0.21040    0.05786    0.07798    0.00164      0.07041      0.01259      0.00195      0.06504      0.01348      
9800    0.21071    0.05789    0.07814    0.00192      0.07032      0.01217      0.00223      0.06491      0.01339      
9900    0.20966    0.05741    0.07753    0.00166      0.07046      0.01299      0.00204      0.06527      0.01433      
10000   0.21114    0.05790    0.07811    0.00206      0.07047      0.01302      0.00240      0.06544      0.01463      

---------------------------------------------------------------
Time used for training = 4998.100586 s.
---------------------------------------------------------------


---------------------------------------------------------------
Finished running nep.
---------------------------------------------------------------


***************************************************************
*                 Welcome to use GPUMD                        *
*    (Graphics Processing Units Molecular Dynamics)           *
*                     Version 3.8                             *
*              This is the nep executable                     *
***************************************************************


---------------------------------------------------------------
GPU information:
---------------------------------------------------------------

number of GPUs = 2
Device id:                   0
    Device name:             NVIDIA GeForce RTX 3090
    Compute capability:      8.6
    Amount of global memory: 23.6911 GB
    Number of SMs:           82
Device id:                   1
    Device name:             NVIDIA GeForce RTX 3090
    Compute capability:      8.6
    Amount of global memory: 23.6911 GB
    Number of SMs:           82
GPU-0 cannot access GPU-1.
GPU-1 cannot access GPU-0.

---------------------------------------------------------------
Started running nep.
---------------------------------------------------------------


---------------------------------------------------------------
Started reading nep.in.
---------------------------------------------------------------

Input or default parameters:
    (default) model_type = potential.
    (default) calculation mode = train.
    (input)   use NEP version 4.
    (input)   number of atom types = 2.
        (default) type 0 (Cu with Z = 29) has force weight of 1.
        (default) type 1 (Se with Z = 34) has force weight of 1.
    (default) will not add the ZBL potential.
    (input)   radial cutoff = 7 A.
    (input)   angular cutoff = 5 A.
    (input)   n_max_radial = 8.
    (input)   n_max_angular = 6.
    (input)   basis_size_radial = 12.
    (input)   basis_size_angular = 12.
    (input)   l_max_3body = 4.
    (input)   l_max_4body = 2.
    (input)   l_max_5body = 0.
    (input)   number of neurons = 50.
    (default) lambda_1 = -1.
    (default) lambda_2 = -1.
    (input)   lambda_e = 1.
    (input)   lambda_f = 1.
    (input)   lambda_v = 0.2.
    (default) lambda_shear = 1.
    (default) force_delta = 0.
    (input)   batch size = 1000.
    (input)   population size = 50.
    (input)   maximum number of generations = 10000.
Some calculated parameters:
    number of radial descriptor components = 9.
    number of angular descriptor components = 35.
    total number of descriptor components = 44.
    NN architecture = 44-50-1.
    number of NN parameters to be optimized = 4601.
    number of descriptor parameters to be optimized = 832.
    total number of parameters to be optimized = 5433.

---------------------------------------------------------------
Finished reading nep.in.
---------------------------------------------------------------


---------------------------------------------------------------
Started reading train.xyz.
---------------------------------------------------------------

Number of configurations = 470.
Number of devices = 2
Number of batches = 1
Hello, I changed the batch_size from 1000 to 470.

Batch 0:
Number of configurations = 470.

---------------------------------------------------------------
Constructing train_set in device  0.
Total number of atoms = 163820.
Number of atoms in the largest configuration = 596.
Number of configurations having virial = 470.
Radial descriptor with a cutoff of 7 A:
    Minimum number of neighbors for one atom = 63.
    Maximum number of neighbors for one atom = 100.
Angular descriptor with a cutoff of 5 A:
    Minimum number of neighbors for one atom = 20.
    Maximum number of neighbors for one atom = 44.
---------------------------------------------------------------


---------------------------------------------------------------
Constructing train_set in device  1.
Total number of atoms = 163820.
Number of atoms in the largest configuration = 596.
Number of configurations having virial = 470.
Radial descriptor with a cutoff of 7 A:
    Minimum number of neighbors for one atom = 63.
    Maximum number of neighbors for one atom = 100.
Angular descriptor with a cutoff of 5 A:
    Minimum number of neighbors for one atom = 20.
    Maximum number of neighbors for one atom = 44.
---------------------------------------------------------------


---------------------------------------------------------------
Started reading test.xyz.
---------------------------------------------------------------

Number of configurations = 170.

---------------------------------------------------------------
Constructing test_set in device  0.
Total number of atoms = 50240.
Number of atoms in the largest configuration = 596.
Number of configurations having virial = 170.
Radial descriptor with a cutoff of 7 A:
    Minimum number of neighbors for one atom = 63.
    Maximum number of neighbors for one atom = 95.
Angular descriptor with a cutoff of 5 A:
    Minimum number of neighbors for one atom = 20.
    Maximum number of neighbors for one atom = 40.
---------------------------------------------------------------


---------------------------------------------------------------
Constructing test_set in device  1.
Total number of atoms = 50240.
Number of atoms in the largest configuration = 596.
Number of configurations having virial = 170.
Radial descriptor with a cutoff of 7 A:
    Minimum number of neighbors for one atom = 63.
    Maximum number of neighbors for one atom = 95.
Angular descriptor with a cutoff of 5 A:
    Minimum number of neighbors for one atom = 20.
    Maximum number of neighbors for one atom = 40.
---------------------------------------------------------------


---------------------------------------------------------------
Time used for initialization = 0.454893 s.
---------------------------------------------------------------


---------------------------------------------------------------
Started training.
---------------------------------------------------------------

Step    Total-Loss L1Reg-Loss L2Reg-Loss RMSE-E-Train RMSE-F-Train RMSE-V-Train RMSE-E-Test  RMSE-F-Test  RMSE-V-Test  
100     0.21035    0.05762    0.07761    0.00216      0.07041      0.01274      0.00235      0.06509      0.01383      
200     0.20746    0.05682    0.07663    0.00162      0.06999      0.01206      0.00197      0.06447      0.01308      
300     0.20777    0.05667    0.07660    0.00177      0.07045      0.01143      0.00222      0.06427      0.01219      
400     0.20726    0.05672    0.07636    0.00163      0.06997      0.01295      0.00191      0.06399      0.01255      
500     0.20629    0.05623    0.07577    0.00166      0.06993      0.01350      0.00205      0.06424      0.01388      
600     0.20612    0.05602    0.07566    0.00195      0.07011      0.01197      0.00221      0.06427      0.01202      
700     0.20616    0.05608    0.07573    0.00151      0.07049      0.01173      0.00179      0.06437      0.01210      
800     0.20514    0.05577    0.07519    0.00168      0.07013      0.01179      0.00203      0.06438      0.01235      
900     0.20504    0.05546    0.07506    0.00189      0.07023      0.01204      0.00209      0.06460      0.01279      
1000    0.20355    0.05484    0.07443    0.00166      0.07026      0.01177      0.00190      0.06459      0.01215      
1100    0.20374    0.05480    0.07447    0.00161      0.07034      0.01265      0.00177      0.06462      0.01396      
1200    0.20274    0.05464    0.07417    0.00147      0.06985      0.01308      0.00179      0.06447      0.01401      
1300    0.20174    0.05426    0.07355    0.00163      0.06976      0.01270      0.00190      0.06409      0.01322      
1400    0.20071    0.05377    0.07312    0.00176      0.06972      0.01172      0.00217      0.06413      0.01228      
1500    0.20138    0.05393    0.07319    0.00187      0.07004      0.01177      0.00212      0.06453      0.01278      
1600    0.20080    0.05368    0.07287    0.00167      0.06995      0.01315      0.00189      0.06428      0.01275      
1700    0.20002    0.05356    0.07252    0.00167      0.06978      0.01242      0.00208      0.06401      0.01317      
1800    0.19858    0.05299    0.07186    0.00150      0.06974      0.01245      0.00187      0.06396      0.01325      
1900    0.19950    0.05344    0.07215    0.00150      0.06990      0.01256      0.00183      0.06418      0.01294      
2000    0.20003    0.05358    0.07233    0.00167      0.07001      0.01217      0.00200      0.06432      0.01334      
2100    0.19886    0.05310    0.07186    0.00145      0.06998      0.01230      0.00176      0.06417      0.01255      
2200    0.19778    0.05252    0.07134    0.00166      0.06976      0.01249      0.00198      0.06408      0.01314      
2300    0.19732    0.05219    0.07097    0.00169      0.07013      0.01167      0.00191      0.06417      0.01270      
2400    0.19592    0.05174    0.07036    0.00187      0.06965      0.01147      0.00215      0.06460      0.01202      
2500    0.19587    0.05156    0.07026    0.00185      0.06966      0.01271      0.00222      0.06425      0.01354      
2600    0.19492    0.05136    0.06998    0.00176      0.06928      0.01268      0.00226      0.06395      0.01440      
2700    0.19522    0.05115    0.07004    0.00186      0.06985      0.01164      0.00213      0.06450      0.01234      
2800    0.19359    0.05074    0.06931    0.00157      0.06963      0.01167      0.00186      0.06438      0.01204      
2900    0.19372    0.05052    0.06940    0.00190      0.06954      0.01180      0.00217      0.06416      0.01291      
3000    0.19258    0.05033    0.06887    0.00163      0.06947      0.01138      0.00191      0.06401      0.01194      
3100    0.19320    0.05048    0.06908    0.00162      0.06964      0.01190      0.00197      0.06444      0.01260      
3200    0.19324    0.05040    0.06900    0.00181      0.06934      0.01345      0.00214      0.06392      0.01553      
3300    0.19110    0.04977    0.06810    0.00150      0.06948      0.01129      0.00179      0.06396      0.01191      
3400    0.19158    0.04981    0.06827    0.00150      0.06967      0.01165      0.00177      0.06436      0.01248      
3500    0.19177    0.04990    0.06819    0.00169      0.06956      0.01212      0.00210      0.06427      0.01332      
3600    0.19138    0.04958    0.06798    0.00162      0.06951      0.01351      0.00183      0.06422      0.01479      
3700    0.19192    0.04985    0.06827    0.00158      0.06965      0.01285      0.00194      0.06408      0.01378      
3800    0.19116    0.04959    0.06788    0.00159      0.06977      0.01166      0.00196      0.06434      0.01275      
3900    0.19109    0.04963    0.06774    0.00182      0.06942      0.01240      0.00192      0.06397      0.01278      
4000    0.19131    0.04961    0.06785    0.00159      0.06961      0.01326      0.00198      0.06394      0.01258      
4100    0.19025    0.04925    0.06748    0.00156      0.06958      0.01197      0.00190      0.06392      0.01253      
4200    0.19000    0.04923    0.06739    0.00166      0.06938      0.01166      0.00198      0.06388      0.01217      
4300    0.18922    0.04887    0.06687    0.00164      0.06931      0.01263      0.00186      0.06405      0.01301      
4400    0.18906    0.04878    0.06682    0.00164      0.06946      0.01181      0.00194      0.06391      0.01264      
4500    0.18876    0.04858    0.06674    0.00167      0.06947      0.01153      0.00190      0.06404      0.01215      
4600    0.18811    0.04826    0.06647    0.00137      0.06940      0.01301      0.00160      0.06386      0.01311      
4700    0.18757    0.04795    0.06618    0.00169      0.06936      0.01196      0.00176      0.06375      0.01308      
4800    0.18693    0.04786    0.06604    0.00148      0.06922      0.01164      0.00177      0.06387      0.01204      
4900    0.18652    0.04769    0.06580    0.00155      0.06913      0.01173      0.00187      0.06380      0.01264      
5000    0.18657    0.04777    0.06572    0.00153      0.06924      0.01159      0.00181      0.06374      0.01221      
5100    0.18638    0.04780    0.06560    0.00153      0.06904      0.01208      0.00182      0.06361      0.01248      
5200    0.18733    0.04806    0.06591    0.00168      0.06928      0.01202      0.00197      0.06382      0.01275      
5300    0.18734    0.04816    0.06588    0.00167      0.06940      0.01119      0.00190      0.06375      0.01185      
5400    0.18663    0.04763    0.06557    0.00156      0.06932      0.01279      0.00191      0.06388      0.01399      
5500    0.18515    0.04715    0.06494    0.00175      0.06897      0.01167      0.00185      0.06341      0.01203      
5600    0.18512    0.04706    0.06484    0.00169      0.06913      0.01200      0.00193      0.06362      0.01381      
5700    0.18562    0.04727    0.06508    0.00148      0.06926      0.01272      0.00184      0.06398      0.01364      
5800    0.18565    0.04730    0.06510    0.00157      0.06934      0.01170      0.00183      0.06424      0.01182      
5900    0.18464    0.04689    0.06464    0.00140      0.06913      0.01289      0.00176      0.06400      0.01414      
6000    0.18388    0.04666    0.06436    0.00159      0.06898      0.01146      0.00201      0.06389      0.01217      
6100    0.18357    0.04663    0.06406    0.00165      0.06896      0.01135      0.00204      0.06355      0.01204      
6200    0.18403    0.04674    0.06426    0.00169      0.06899      0.01177      0.00181      0.06368      0.01281      
6300    0.18327    0.04657    0.06394    0.00150      0.06888      0.01185      0.00183      0.06370      0.01218      
6400    0.18418    0.04659    0.06423    0.00186      0.06918      0.01158      0.00206      0.06389      0.01206      
6500    0.18362    0.04651    0.06411    0.00164      0.06893      0.01216      0.00193      0.06370      0.01261      
6600    0.18379    0.04655    0.06408    0.00159      0.06892      0.01323      0.00192      0.06353      0.01448      
6700    0.18389    0.04661    0.06411    0.00171      0.06902      0.01222      0.00201      0.06357      0.01311      
6800    0.18354    0.04639    0.06393    0.00152      0.06887      0.01421      0.00184      0.06331      0.01288      
6900    0.18288    0.04630    0.06380    0.00157      0.06876      0.01223      0.00187      0.06359      0.01363      
7000    0.18332    0.04653    0.06389    0.00160      0.06895      0.01178      0.00196      0.06377      0.01310      
7100    0.18261    0.04616    0.06366    0.00157      0.06885      0.01178      0.00186      0.06341      0.01255      
7200    0.18305    0.04632    0.06374    0.00173      0.06894      0.01164      0.00192      0.06362      0.01250      
7300    0.18286    0.04637    0.06372    0.00146      0.06877      0.01265      0.00180      0.06346      0.01332      
7400    0.18317    0.04637    0.06386    0.00169      0.06889      0.01183      0.00179      0.06372      0.01243      
7500    0.18294    0.04639    0.06380    0.00144      0.06890      0.01207      0.00181      0.06355      0.01357      
7600    0.18274    0.04634    0.06366    0.00148      0.06889      0.01186      0.00192      0.06341      0.01317      
7700    0.18271    0.04634    0.06367    0.00141      0.06889      0.01203      0.00174      0.06362      0.01325      
7800    0.18299    0.04635    0.06366    0.00152      0.06901      0.01228      0.00192      0.06422      0.01352      
7900    0.18156    0.04588    0.06303    0.00161      0.06866      0.01186      0.00172      0.06349      0.01312      
8000    0.18140    0.04586    0.06290    0.00161      0.06869      0.01171      0.00190      0.06352      0.01296      
8100    0.18122    0.04576    0.06290    0.00160      0.06858      0.01196      0.00189      0.06351      0.01333      
8200    0.18135    0.04585    0.06293    0.00150      0.06871      0.01181      0.00185      0.06327      0.01238      
8300    0.18065    0.04547    0.06261    0.00148      0.06872      0.01190      0.00183      0.06305      0.01330      
8400    0.17932    0.04487    0.06198    0.00170      0.06831      0.01232      0.00195      0.06291      0.01304      
8500    0.17955    0.04481    0.06213    0.00160      0.06860      0.01204      0.00196      0.06305      0.01297      
8600    0.17944    0.04482    0.06202    0.00159      0.06841      0.01299      0.00187      0.06295      0.01380      
8700    0.17968    0.04485    0.06204    0.00154      0.06880      0.01226      0.00183      0.06316      0.01302      
8800    0.17887    0.04472    0.06178    0.00147      0.06856      0.01172      0.00174      0.06341      0.01257      
8900    0.17891    0.04469    0.06189    0.00154      0.06834      0.01226      0.00183      0.06284      0.01368      
9000    0.17893    0.04463    0.06177    0.00171      0.06841      0.01205      0.00201      0.06295      0.01252      
9100    0.17816    0.04420    0.06136    0.00167      0.06859      0.01173      0.00184      0.06334      0.01266      
9200    0.17755    0.04411    0.06119    0.00152      0.06838      0.01173      0.00183      0.06317      0.01254      
9300    0.17719    0.04376    0.06096    0.00164      0.06819      0.01316      0.00189      0.06262      0.01441      
9400    0.17683    0.04357    0.06071    0.00172      0.06831      0.01263      0.00194      0.06284      0.01438      
9500    0.17687    0.04340    0.06056    0.00162      0.06860      0.01345      0.00193      0.06313      0.01440      
9600    0.17577    0.04321    0.06028    0.00160      0.06830      0.01187      0.00180      0.06286      0.01283      
9700    0.17564    0.04303    0.06010    0.00175      0.06826      0.01257      0.00181      0.06325      0.01319      
9800    0.17532    0.04291    0.06004    0.00168      0.06825      0.01221      0.00184      0.06312      0.01326      
9900    0.17548    0.04292    0.06002    0.00163      0.06861      0.01153      0.00200      0.06320      0.01250      
10000   0.17619    0.04338    0.06030    0.00146      0.06871      0.01170      0.00179      0.06346      0.01271      

---------------------------------------------------------------
Time used for training = 4999.064941 s.
---------------------------------------------------------------


---------------------------------------------------------------
Finished running nep.
---------------------------------------------------------------

do.sh:  2: $'\r'
do.sh:  5: $'\r'
do.sh:  7: $'do\r'
do.sh:  7: `for ((i=1; i<=repeat_count; i++)); do'
do.sh:  2: $'\r'
do.sh:  4: $'\r'
do.sh:  6: /home/dhk/app/cu2se/nep-6/GPUMD-master/src/nep: 
do.sh:  7: $'wait\r'
sleep: 5400\r
 "sleep --help" 
do.sh:  9: /home/dhk/app/cu2se/nep-6/GPUMD-master/src/nep: 
do.sh:  10: $'wait\r'
sleep: 5400\r
 "sleep --help" 
do.sh:  12: /home/dhk/app/cu2se/nep-6/GPUMD-master/src/nep: 
do.sh:  13: $'wait\r'
sleep: 5400\r
 "sleep --help" 
do.sh:  15: /home/dhk/app/cu2se/nep-6/GPUMD-master/src/nep: 

***************************************************************
*                 Welcome to use GPUMD                        *
*    (Graphics Processing Units Molecular Dynamics)           *
*                     Version 3.8                             *
*              This is the nep executable                     *
***************************************************************


---------------------------------------------------------------
GPU information:
---------------------------------------------------------------

number of GPUs = 2
Device id:                   0
    Device name:             NVIDIA GeForce RTX 3090
    Compute capability:      8.6
    Amount of global memory: 23.6911 GB
    Number of SMs:           82
Device id:                   1
    Device name:             NVIDIA GeForce RTX 3090
    Compute capability:      8.6
    Amount of global memory: 23.6911 GB
    Number of SMs:           82
GPU-0 cannot access GPU-1.
GPU-1 cannot access GPU-0.

---------------------------------------------------------------
Started running nep.
---------------------------------------------------------------


---------------------------------------------------------------
Started reading nep.in.
---------------------------------------------------------------

Input or default parameters:
    (default) model_type = potential.
    (default) calculation mode = train.
    (input)   use NEP version 4.
    (input)   number of atom types = 2.
        (default) type 0 (Cu with Z = 29) has force weight of 1.
        (default) type 1 (Se with Z = 34) has force weight of 1.
    (default) will not add the ZBL potential.
    (input)   radial cutoff = 7 A.
    (input)   angular cutoff = 5 A.
    (input)   n_max_radial = 8.
    (input)   n_max_angular = 6.
    (input)   basis_size_radial = 12.
    (input)   basis_size_angular = 12.
    (input)   l_max_3body = 4.
    (input)   l_max_4body = 2.
    (input)   l_max_5body = 0.
    (input)   number of neurons = 50.
    (default) lambda_1 = -1.
    (default) lambda_2 = -1.
    (input)   lambda_e = 1.
    (input)   lambda_f = 1.
    (input)   lambda_v = 0.2.
    (default) lambda_shear = 1.
    (default) force_delta = 0.
    (input)   batch size = 1000.
    (input)   population size = 50.
    (input)   maximum number of generations = 60000.
Some calculated parameters:
    number of radial descriptor components = 9.
    number of angular descriptor components = 35.
    total number of descriptor components = 44.
    NN architecture = 44-50-1.
[...]
28800   0.10950    0.01352    0.03027    0.00119      0.06244      0.01039      0.00152      0.05796      0.01119      
28900   0.10949    0.01351    0.03027    0.00119      0.06244      0.01042      0.00153      0.05798      0.01123      
29000   0.10948    0.01351    0.03026    0.00118      0.06244      0.01041      0.00150      0.05795      0.01120      
29100   0.10945    0.01350    0.03026    0.00118      0.06243      0.01045      0.00150      0.05792      0.01128      
29200   0.10945    0.01349    0.03025    0.00120      0.06242      0.01039      0.00152      0.05794      0.01121      
29300   0.10943    0.01349    0.03025    0.00118      0.06243      0.01042      0.00149      0.05796      0.01126      
29400   0.10943    0.01349    0.03024    0.00118      0.06244      0.01040      0.00149      0.05799      0.01117      
29500   0.10942    0.01348    0.03024    0.00117      0.06245      0.01034      0.00149      0.05798      0.01108      
29600   0.10939    0.01349    0.03023    0.00119      0.06242      0.01034      0.00151      0.05793      0.01109      
29700   0.10938    0.01348    0.03023    0.00119      0.06241      0.01033      0.00151      0.05792      0.01102      

---------------------------------------------------------------
Time used for training = 14804.947266 s.
---------------------------------------------------------------


---------------------------------------------------------------
Finished running nep.
---------------------------------------------------------------


***************************************************************
*                 Welcome to use GPUMD                        *
*    (Graphics Processing Units Molecular Dynamics)           *
*                     Version 3.8                             *
*              This is the nep executable                     *
***************************************************************


---------------------------------------------------------------
GPU information:
---------------------------------------------------------------

number of GPUs = 2
Device id:                   0
    Device name:             NVIDIA GeForce RTX 3090
    Compute capability:      8.6
    Amount of global memory: 23.6911 GB
    Number of SMs:           82
Device id:                   1
    Device name:             NVIDIA GeForce RTX 3090
    Compute capability:      8.6
    Amount of global memory: 23.6911 GB
    Number of SMs:           82
GPU-0 cannot access GPU-1.
GPU-1 cannot access GPU-0.

---------------------------------------------------------------
Started running nep.
---------------------------------------------------------------


---------------------------------------------------------------
Started reading nep.in.
---------------------------------------------------------------

Input or default parameters:
    (default) model_type = potential.
    (default) calculation mode = train.
    (input)   use NEP version 4.
    (input)   number of atom types = 2.
        (default) type 0 (Cu with Z = 29) has force weight of 1.
        (default) type 1 (Se with Z = 34) has force weight of 1.
    (default) will not add the ZBL potential.
    (input)   radial cutoff = 7 A.
    (input)   angular cutoff = 5 A.
    (input)   n_max_radial = 8.
    (input)   n_max_angular = 6.
    (input)   basis_size_radial = 12.
    (input)   basis_size_angular = 12.
    (input)   l_max_3body = 4.
    (input)   l_max_4body = 2.
    (input)   l_max_5body = 0.
    (input)   number of neurons = 50.
    (default) lambda_1 = -1.
    (default) lambda_2 = -1.
    (input)   lambda_e = 1.
    (input)   lambda_f = 1.
    (input)   lambda_v = 0.2.
    (default) lambda_shear = 1.
    (default) force_delta = 0.
    (input)   batch size = 1000.
    (input)   population size = 50.
    (input)   maximum number of generations = 10000.
Some calculated parameters:
    number of radial descriptor components = 9.
    number of angular descriptor components = 35.
    total number of descriptor components = 44.
    NN architecture = 44-50-1.
    number of NN parameters to be optimized = 4601.
    number of descriptor parameters to be optimized = 832.
    total number of parameters to be optimized = 5433.

---------------------------------------------------------------
Finished reading nep.in.
---------------------------------------------------------------


---------------------------------------------------------------
Started reading train.xyz.
---------------------------------------------------------------

Number of configurations = 470.
Number of devices = 2
Number of batches = 1
Hello, I changed the batch_size from 1000 to 470.

Batch 0:
Number of configurations = 470.

---------------------------------------------------------------
Constructing train_set in device  0.
Total number of atoms = 163820.
Number of atoms in the largest configuration = 596.
Number of configurations having virial = 470.
Radial descriptor with a cutoff of 7 A:
    Minimum number of neighbors for one atom = 63.
    Maximum number of neighbors for one atom = 100.
Angular descriptor with a cutoff of 5 A:
    Minimum number of neighbors for one atom = 20.
    Maximum number of neighbors for one atom = 44.
---------------------------------------------------------------


---------------------------------------------------------------
Constructing train_set in device  1.
Total number of atoms = 163820.
Number of atoms in the largest configuration = 596.
Number of configurations having virial = 470.
Radial descriptor with a cutoff of 7 A:
    Minimum number of neighbors for one atom = 63.
    Maximum number of neighbors for one atom = 100.
Angular descriptor with a cutoff of 5 A:
    Minimum number of neighbors for one atom = 20.
    Maximum number of neighbors for one atom = 44.
---------------------------------------------------------------


---------------------------------------------------------------
Started reading test.xyz.
---------------------------------------------------------------

Number of configurations = 170.

---------------------------------------------------------------
Constructing test_set in device  0.
Total number of atoms = 50240.
Number of atoms in the largest configuration = 596.
Number of configurations having virial = 170.
Radial descriptor with a cutoff of 7 A:
    Minimum number of neighbors for one atom = 63.
    Maximum number of neighbors for one atom = 95.
Angular descriptor with a cutoff of 5 A:
    Minimum number of neighbors for one atom = 20.
    Maximum number of neighbors for one atom = 40.
---------------------------------------------------------------


---------------------------------------------------------------
Constructing test_set in device  1.
Total number of atoms = 50240.
Number of atoms in the largest configuration = 596.
Number of configurations having virial = 170.
Radial descriptor with a cutoff of 7 A:
    Minimum number of neighbors for one atom = 63.
    Maximum number of neighbors for one atom = 95.
Angular descriptor with a cutoff of 5 A:
    Minimum number of neighbors for one atom = 20.
    Maximum number of neighbors for one atom = 40.
---------------------------------------------------------------


---------------------------------------------------------------
Time used for initialization = 0.459431 s.
---------------------------------------------------------------


---------------------------------------------------------------
Started training.
---------------------------------------------------------------

Step    Total-Loss L1Reg-Loss L2Reg-Loss RMSE-E-Train RMSE-F-Train RMSE-V-Train RMSE-E-Test  RMSE-F-Test  RMSE-V-Test  
100     0.10939    0.01348    0.03022    0.00118      0.06244      0.01035      0.00150      0.05795      0.01109      
200     0.10938    0.01348    0.03022    0.00119      0.06241      0.01037      0.00152      0.05791      0.01113      
300     0.10939    0.01347    0.03023    0.00119      0.06243      0.01038      0.00150      0.05794      0.01115      
400     0.10936    0.01347    0.03022    0.00119      0.06240      0.01041      0.00151      0.05790      0.01119      
500     0.10935    0.01345    0.03022    0.00118      0.06243      0.01038      0.00149      0.05793      0.01112      
600     0.10932    0.01344    0.03021    0.00118      0.06241      0.01043      0.00150      0.05790      0.01114      
700     0.10931    0.01344    0.03020    0.00119      0.06240      0.01038      0.00151      0.05791      0.01113      
800     0.10929    0.01343    0.03019    0.00118      0.06242      0.01039      0.00148      0.05792      0.01117      
900     0.10927    0.01342    0.03019    0.00119      0.06239      0.01041      0.00151      0.05787      0.01123      
1000    0.10928    0.01342    0.03019    0.00118      0.06240      0.01039      0.00149      0.05790      0.01118      
1100    0.10926    0.01341    0.03019    0.00119      0.06239      0.01040      0.00152      0.05789      0.01117      
1200    0.10925    0.01340    0.03018    0.00120      0.06239      0.01037      0.00152      0.05789      0.01117      
1300    0.10924    0.01340    0.03018    0.00119      0.06239      0.01039      0.00152      0.05787      0.01115      
1400    0.10923    0.01340    0.03017    0.00119      0.06239      0.01038      0.00153      0.05789      0.01115      
1500    0.10920    0.01339    0.03017    0.00119      0.06238      0.01034      0.00151      0.05787      0.01107      
1600    0.10918    0.01338    0.03016    0.00120      0.06237      0.01036      0.00151      0.05788      0.01108      
1700    0.10919    0.01338    0.03016    0.00121      0.06237      0.01035      0.00151      0.05786      0.01108      
1800    0.10919    0.01339    0.03016    0.00119      0.06239      0.01034      0.00149      0.05789      0.01103      
1900    0.10918    0.01339    0.03015    0.00118      0.06239      0.01034      0.00150      0.05790      0.01107      
2000    0.10917    0.01339    0.03015    0.00120      0.06237      0.01035      0.00153      0.05786      0.01107      
2100    0.10915    0.01338    0.03014    0.00119      0.06237      0.01036      0.00151      0.05787      0.01111      
2200    0.10913    0.01337    0.03014    0.00119      0.06236      0.01038      0.00152      0.05786      0.01112      
2300    0.10914    0.01337    0.03014    0.00120      0.06237      0.01033      0.00152      0.05786      0.01100      
2400    0.10913    0.01336    0.03014    0.00119      0.06237      0.01038      0.00152      0.05787      0.01111      
2500    0.10911    0.01336    0.03012    0.00119      0.06235      0.01040      0.00151      0.05785      0.01117      
2600    0.10910    0.01334    0.03012    0.00120      0.06235      0.01043      0.00152      0.05783      0.01124      
2700    0.10910    0.01336    0.03012    0.00119      0.06236      0.01037      0.00150      0.05785      0.01114      
2800    0.10909    0.01335    0.03012    0.00118      0.06236      0.01039      0.00149      0.05786      0.01114      
2900    0.10907    0.01334    0.03011    0.00118      0.06236      0.01037      0.00150      0.05789      0.01112      
3000    0.10905    0.01333    0.03010    0.00119      0.06234      0.01037      0.00151      0.05785      0.01116      
3100    0.10905    0.01333    0.03010    0.00119      0.06235      0.01038      0.00150      0.05787      0.01114      
3200    0.10903    0.01332    0.03010    0.00119      0.06236      0.01033      0.00150      0.05787      0.01103      
3300    0.10902    0.01332    0.03009    0.00119      0.06234      0.01040      0.00150      0.05787      0.01120      
3400    0.10901    0.01332    0.03009    0.00119      0.06234      0.01038      0.00150      0.05786      0.01112      
3500    0.10900    0.01331    0.03008    0.00119      0.06234      0.01042      0.00150      0.05787      0.01122      
3600    0.10898    0.01329    0.03008    0.00120      0.06234      0.01037      0.00152      0.05786      0.01114      
3700    0.10897    0.01328    0.03008    0.00117      0.06236      0.01038      0.00147      0.05789      0.01117      
3800    0.10896    0.01327    0.03007    0.00118      0.06235      0.01038      0.00149      0.05783      0.01116      
3900    0.10896    0.01328    0.03007    0.00117      0.06236      0.01037      0.00148      0.05786      0.01116      
4000    0.10895    0.01328    0.03007    0.00117      0.06235      0.01037      0.00148      0.05786      0.01117      
4100    0.10893    0.01327    0.03006    0.00118      0.06235      0.01035      0.00148      0.05785      0.01112      
4200    0.10893    0.01327    0.03006    0.00118      0.06235      0.01033      0.00148      0.05785      0.01108      
4300    0.10893    0.01327    0.03006    0.00118      0.06235      0.01041      0.00149      0.05786      0.01122      
4400    0.10892    0.01326    0.03006    0.00118      0.06234      0.01039      0.00149      0.05786      0.01121      
4500    0.10891    0.01326    0.03005    0.00118      0.06234      0.01038      0.00149      0.05787      0.01120      
4600    0.10891    0.01326    0.03005    0.00119      0.06234      0.01036      0.00150      0.05785      0.01112      
4700    0.10890    0.01326    0.03005    0.00117      0.06235      0.01035      0.00147      0.05787      0.01110      
4800    0.10889    0.01325    0.03004    0.00119      0.06235      0.01035      0.00150      0.05788      0.01112      
4900    0.10889    0.01325    0.03004    0.00118      0.06235      0.01037      0.00149      0.05787      0.01113      
5000    0.10888    0.01325    0.03003    0.00119      0.06234      0.01038      0.00150      0.05786      0.01113      
5100    0.10887    0.01323    0.03002    0.00118      0.06235      0.01040      0.00149      0.05788      0.01111      
5200    0.10886    0.01322    0.03002    0.00119      0.06235      0.01041      0.00151      0.05785      0.01122      
5300    0.10885    0.01322    0.03001    0.00119      0.06235      0.01037      0.00151      0.05787      0.01116      
5400    0.10884    0.01322    0.03001    0.00118      0.06236      0.01037      0.00150      0.05786      0.01115      
5500    0.10884    0.01322    0.03001    0.00118      0.06236      0.01038      0.00149      0.05787      0.01116      
5600    0.10882    0.01320    0.03000    0.00118      0.06236      0.01038      0.00150      0.05788      0.01119      
5700    0.10882    0.01320    0.03000    0.00117      0.06237      0.01037      0.00147      0.05789      0.01112      
5800    0.10881    0.01319    0.03000    0.00118      0.06237      0.01037      0.00150      0.05791      0.01115      
5900    0.10879    0.01318    0.03000    0.00117      0.06237      0.01038      0.00147      0.05789      0.01117      
6000    0.10879    0.01319    0.02999    0.00118      0.06235      0.01041      0.00150      0.05783      0.01122      
6100    0.10878    0.01317    0.02999    0.00118      0.06236      0.01036      0.00149      0.05785      0.01114      
6200    0.10877    0.01317    0.02999    0.00119      0.06235      0.01034      0.00151      0.05784      0.01108      
6300    0.10876    0.01317    0.02998    0.00119      0.06235      0.01036      0.00150      0.05784      0.01109      
6400    0.10874    0.01316    0.02997    0.00118      0.06234      0.01043      0.00150      0.05784      0.01122      
6500    0.10872    0.01314    0.02997    0.00118      0.06235      0.01038      0.00150      0.05786      0.01116      
6600    0.10871    0.01314    0.02997    0.00119      0.06234      0.01038      0.00150      0.05784      0.01111      
6700    0.10869    0.01313    0.02996    0.00118      0.06235      0.01038      0.00150      0.05785      0.01112      
6800    0.10869    0.01313    0.02996    0.00118      0.06235      0.01040      0.00149      0.05784      0.01119      
6900    0.10869    0.01312    0.02996    0.00118      0.06235      0.01040      0.00150      0.05785      0.01118      
7000    0.10866    0.01311    0.02995    0.00118      0.06236      0.01035      0.00149      0.05787      0.01108      
7100    0.10865    0.01311    0.02994    0.00118      0.06235      0.01034      0.00149      0.05785      0.01108      
7200    0.10863    0.01309    0.02994    0.00120      0.06233      0.01039      0.00153      0.05784      0.01120      
7300    0.10862    0.01309    0.02993    0.00118      0.06234      0.01038      0.00149      0.05787      0.01120      
7400    0.10862    0.01309    0.02993    0.00119      0.06234      0.01040      0.00150      0.05784      0.01119      
7500    0.10861    0.01308    0.02993    0.00120      0.06233      0.01039      0.00152      0.05784      0.01120      
7600    0.10860    0.01308    0.02992    0.00118      0.06234      0.01042      0.00150      0.05784      0.01120      
7700    0.10859    0.01308    0.02991    0.00119      0.06233      0.01036      0.00151      0.05783      0.01111      
7800    0.10858    0.01307    0.02991    0.00117      0.06234      0.01041      0.00149      0.05784      0.01122      
7900    0.10857    0.01307    0.02991    0.00120      0.06232      0.01037      0.00150      0.05783      0.01110      
8000    0.10856    0.01307    0.02990    0.00118      0.06232      0.01039      0.00149      0.05783      0.01118      
8100    0.10855    0.01307    0.02990    0.00119      0.06232      0.01038      0.00150      0.05784      0.01118      
8200    0.10854    0.01306    0.02989    0.00120      0.06232      0.01038      0.00150      0.05783      0.01117      
8300    0.10853    0.01306    0.02989    0.00120      0.06230      0.01039      0.00152      0.05783      0.01121      
8400    0.10852    0.01303    0.02989    0.00118      0.06233      0.01041      0.00149      0.05787      0.01121      
8500    0.10851    0.01304    0.02988    0.00118      0.06232      0.01040      0.00149      0.05785      0.01121      
8600    0.10850    0.01303    0.02988    0.00120      0.06231      0.01043      0.00151      0.05783      0.01124      
8700    0.10849    0.01303    0.02988    0.00119      0.06231      0.01043      0.00150      0.05783      0.01127      
8800    0.10848    0.01302    0.02987    0.00118      0.06233      0.01038      0.00149      0.05785      0.01115      
8900    0.10848    0.01301    0.02987    0.00119      0.06232      0.01044      0.00150      0.05782      0.01125      
9000    0.10846    0.01301    0.02987    0.00118      0.06232      0.01041      0.00149      0.05786      0.01121      
9100    0.10846    0.01301    0.02986    0.00119      0.06232      0.01036      0.00151      0.05783      0.01111      
9200    0.10844    0.01299    0.02986    0.00120      0.06232      0.01038      0.00152      0.05783      0.01116      
9300    0.10844    0.01299    0.02985    0.00119      0.06232      0.01039      0.00151      0.05784      0.01118      
9400    0.10843    0.01299    0.02985    0.00119      0.06232      0.01044      0.00150      0.05783      0.01125      
9500    0.10842    0.01298    0.02985    0.00119      0.06232      0.01042      0.00150      0.05785      0.01126      
9600    0.10840    0.01297    0.02984    0.00119      0.06231      0.01041      0.00151      0.05785      0.01123      
9700    0.10839    0.01296    0.02984    0.00120      0.06232      0.01037      0.00151      0.05782      0.01116      
9800    0.10838    0.01295    0.02983    0.00119      0.06234      0.01037      0.00149      0.05787      0.01116      
9900    0.10836    0.01295    0.02983    0.00118      0.06233      0.01038      0.00150      0.05786      0.01114      
10000   0.10834    0.01294    0.02982    0.00118      0.06233      0.01039      0.00150      0.05785      0.01119      

---------------------------------------------------------------
Time used for training = 4889.464355 s.
---------------------------------------------------------------


---------------------------------------------------------------
Finished running nep.
---------------------------------------------------------------

