 -3.4351390e-02   1.3783893e-04
  8.5565913e-03   8.9176632e-05
  6.0619712e-01   2.3747890e-04
 -3.6543395e-04   2.1052816e-04
  2.1157448e-01   1.6322038e-04
  1.7809048e-01   7.3598849e-04
  1.0339084e-01   3.7116866e-04
  7.1809471e-02   1.0350500e-03
  1.5847983e-02   7.8640129e-05
  4.0361914e-03   8.3337363e-04
  4.4238757e-02   2.0475879e-04
 -1.6252641e-03   1.4178897e-04
 -2.2395705e-04   3.6829454e-04
  5.9455097e-01   3.8746209e-04
 -4.6321833e-01   2.1420399e-04
 -2.6354956e-04   6.5180118e-04
  1.3420944e-03   2.8871172e-04
 -4.5472343e-04   1.7101504e-04
 -6.1068307e-03   4.0399991e-05
  1.5437695e-02   9.0733549e-05
 -3.9905575e-04   6.6049915e-04
  5.0108876e-02   5.9528690e-04
  4.8865303e-03   9.1448215e-05
  3.3813512e-03   1.7433659e-04
 -1.0582850e-02   2.7263748e-05
  1.0066638e-01   2.7259153e-03
 -2.6974891e-04   6.5009011e-04
 -7.5117903e-05   4.7229364e-04
 -4.3925233e-03   9.7885681e-04
 -2.1012539e-02   1.1355111e-03
 -7.2908093e-05   7.6215359e-04
  2.0890213e-03   3.1118750e-04
  2.9333327e-03   6.3650892e-04
 -3.4689459e-03   3.4065041e-04
  3.1963035e-03   5.4485176e-04
 -1.3826877e-03   7.8489602e-04
 -2.0674495e-03   4.5258546e-04
 -5.0005717e-03   8.7053020e-04
  1.3960736e-04   5.5918109e-04
 -5.1507503e-03   2.8177668e-04
 -9.9795731e-04   7.1194250e-04
 -2.0162847e-03   1.0316465e-04
  3.1584970e-04   6.1216968e-04
 -8.7260769e-04   6.9627975e-04
 -3.7378335e-04   7.8831142e-04
 -3.2152899e-03   4.6351441e-04
 -6.7577721e-04   3.7827040e-04
 -2.1189728e-05   6.3492975e-04
 -3.4920836e-04   5.2042754e-04
 -1.2103526e-03   2.8054017e-04
 -2.4253624e-03   6.0718879e-04
 -5.8021565e-04   8.4161200e-04
  1.8575211e-03   2.3568545e-04
  9.4743643e-04   4.5942416e-04
 -7.4675732e-04   5.2674470e-04
  1.2159634e-03   1.0745114e-03
 -8.3471165e-04   2.4084387e-04
  3.6806896e-04   2.5959554e-04
 -6.5515900e-04   4.6128719e-04
 -5.8805756e-04   3.0744233e-04
  2.8073518e-02   7.0589405e-05
 -2.5401634e-04   7.1889343e-04
 -3.9996882e-04   4.3772077e-04
 -4.6656496e-05   5.9194659e-04
 -3.8354669e-03   7.4957870e-04
  2.5391534e-03   8.8050286e-04
  1.0880431e-03   7.7100703e-04
  7.4780505e-04   5.8916729e-04
  6.4881812e-03   5.2885507e-04
 -8.7283383e-04   2.4352990e-04
 -9.0994861e-04   4.0614969e-04
  1.0513318e-03   3.7923540e-04
  7.8861526e-04   2.2100592e-04
  3.9326005e-05   7.5804064e-04
 -1.3964497e-04   2.7378660e-04
 -4.9895206e-03   6.8850454e-04
 -7.1763474e-04   3.9782087e-04
 -2.5038625e-04   5.4701144e-04
  2.1031901e-04   4.0778838e-04
  2.8556534e-03   4.6825383e-04
 -4.8462418e-04   4.2328888e-04
 -2.0283069e-03   9.8200818e-04
 -8.7604503e-04   8.6307543e-04
  1.1618659e-03   8.5325202e-04
  2.5352326e-04   5.2900746e-04
 -5.6129391e-04   5.1449786e-04
 -6.4192846e-04   4.5741469e-04
 -1.8886845e-03   9.4381743e-04
 -1.1711286e-03   6.0903426e-04
 -1.3055130e-04   5.9437024e-04
  2.7923064e-02   6.4544380e-05
 -1.5887870e-03   2.3036238e-04
  1.1281393e-03   5.5849954e-04
 -5.3057931e-02   4.7762689e-04
 -9.2645828e-04   5.9360795e-04
 -6.4108998e-04   5.6488160e-04
  4.2866112e-04   2.2321276e-04
  8.1254059e-04   3.1700611e-04
 -5.2445295e-04   7.9246657e-04
 -1.3420988e-04   3.5462261e-04
 -8.0263749e-04   5.6578172e-04
  2.0452558e-04   2.5191822e-04
  3.0504302e-03   3.9993235e-04
  1.8687228e-03   3.2742776e-04
  4.1918065e-03   4.8668191e-04
  1.6234683e-04   7.1108586e-04
  5.5148447e-04   4.9525063e-04
  2.5792173e-03   4.6945913e-04
  7.4319099e-03   2.0492031e-05
  1.4545330e-01   8.8376820e-04
  2.7623784e-04   4.9566617e-04
  1.9635863e-03   3.8061364e-04
  9.7234733e-04   4.6604782e-04
 -1.9620136e-04   3.1046366e-04
  5.9240387e-04   3.5125227e-04
 -9.6481520e-04   4.8471769e-04
 -3.6494781e-03   3.8311793e-04
  1.2797500e-03   4.1060944e-04
  2.1827195e-03   7.9122052e-04
 -2.1145276e-03   7.8810303e-04
 -3.0868314e-04   1.0088980e-04
  5.8505335e-04   2.2155202e-04
  8.8061458e-01   1.0154895e-04
  2.2239571e-02   3.9418516e-04
  7.1545410e-01   1.2292442e-04
 -2.2174628e-02   9.0494833e-04
  5.1072065e-04   1.7895611e-04
 -3.1290162e-02   1.6258298e-03
 -1.5855506e-03   2.5239846e-04
 -6.3071534e-04   4.6459204e-04
 -6.4548047e-04   1.9228016e-04
 -1.4956056e-03   5.5589859e-04
 -5.6580912e-02   8.6187577e-04
 -1.5587825e-03   3.1494067e-04
  3.7476223e-02   6.9147901e-04
  6.5397671e-03   6.0055731e-04
  5.7694752e-04   7.7626342e-04
 -2.4163489e-01   3.6784477e-04
  1.3738999e-03   5.2748556e-04
 -5.0959784e-01   2.7120384e-04
 -2.9808397e-03   4.9977744e-04
  3.5004376e-03   8.0882153e-04
  1.3071185e-03   5.2891235e-04
  2.4918213e-03   7.2414306e-04
 -2.7095301e-03   7.0394401e-04
 -2.9726590e-03   6.0120883e-04
  9.9685072e-05   4.6221018e-04
  1.0182004e-03   3.2066306e-04
  2.5780821e-05   4.9369188e-04
 -1.7560059e-04   7.0488651e-04
 -1.2982246e+00   8.6505381e-05
 -5.2919850e-04   2.0904817e-04
 -2.0739239e-01   4.6582561e-05
  2.5294504e-01   1.8736294e-04
  8.3462691e-01   1.1654789e-04
  1.2033475e-02   3.2093137e-04
  1.5600352e-01   1.4135797e-03
  2.6695660e-01   8.0917723e-04
  4.8841149e-01   2.8238998e-04
  4.6486259e-02   5.9751974e-04
  6.8482578e-01   2.7299114e-04
  1.1705561e+00   4.7599580e-04
 -1.6801473e+00   1.3141081e-04
  1.4049562e+00   8.3221908e-05
  3.9699167e-01   9.3901923e-05
  1.8855199e-01   4.2158033e-04
  3.8897336e-04   1.5185027e-04
  1.6313925e+00   2.6965330e-04
 -6.3924301e-01   3.4887111e-04
 -2.1094236e+00   1.8573462e-04
 -7.6505244e-02   1.0393992e-03
  1.1104876e+00   7.8208471e-04
  2.5484034e-01   9.9087402e-04
  3.7679741e-01   4.6273015e-04
 -2.6347879e-02   5.0749810e-04
 -1.0301219e+00   3.2614803e-04
  4.2610912e-04   7.9100142e-04
  8.3779998e-02   5.1658723e-04
  2.0171718e-03   3.9556253e-04
 -7.9349089e-01   3.9719231e-04
  7.4001256e-04   3.0319579e-04
  3.9898045e-04   2.7765811e-04
 -4.6544702e-04   3.6448523e-04
 -6.9198362e-04   5.2099151e-04
 -3.2797906e-01   5.2288675e-04
  1.0244501e-03   6.7649450e-04
 -2.5473051e-03   2.9635525e-04
 -1.1090022e-03   4.8111126e-04
 -9.7018323e-04   1.7643051e-04
 -5.8573042e-04   5.7872524e-04
 -3.6027857e-05   4.6238158e-04
  3.8232567e-04   9.0914464e-04
  5.2624065e-01   4.8274695e-04
  5.8754400e-04   3.6560145e-04
  1.0606697e-03   2.8867830e-04
 -1.0297223e-03   6.9178775e-04
 -1.2669401e-04   7.0316467e-04
  2.6854156e-03   5.9176650e-04
 -8.6508447e-04   4.4841619e-04
 -5.9696786e-02   3.1554201e-04
 -7.7911024e-04   2.6328870e-04
 -1.1103018e-03   4.0881638e-04
  2.1362428e-04   3.1135793e-04
 -1.1228066e-03   2.6888191e-04
  7.9454749e-04   5.5992650e-04
  6.6319702e-04   3.3919804e-04
 -4.8913309e-05   7.1104505e-04
 -8.2361995e-04   4.7483074e-04
  8.5396133e-04   4.5111397e-04
 -2.5870313e-04   1.0356262e-03
  4.0023088e-01   2.9391603e-04
 -3.1641141e-01   6.6270753e-05
 -3.5761856e-04   1.8183884e-04
  5.6346995e-03   2.9997970e-04
  1.4805576e-01   4.7126540e-04
  3.3625372e-04   3.4838461e-04
  4.2048746e-04   3.5095055e-04
 -5.5534593e-03   5.5660156e-04
 -3.4290898e-04   4.2655997e-04
  3.5797054e-01   6.5360946e-04
  1.2667246e-01   8.1203238e-04
 -8.2300581e-02   2.0863675e-04
 -3.5673800e-01   3.2842773e-04
 -3.2300195e-03   2.7646229e-04
 -2.4606965e-01   2.7660301e-04
  2.2647940e-03   6.4622477e-04
 -3.6531445e-04   2.6465632e-04
 -2.4401550e-03   6.1635667e-04
  1.0582573e-02   4.7727197e-04
  1.3292258e-02   2.7017467e-04
 -1.6419723e-04   4.3446681e-04
  3.7205054e-03   4.5375113e-04
 -1.0890920e-03   6.2911876e-04
  1.2540391e-01   4.2974128e-04
 -1.6805416e-02   2.3148012e-04
  1.1045438e-03   4.9412757e-04
  1.1668118e-03   2.5311968e-04
  6.1021186e-04   2.8431078e-04
 -1.7020281e-03   5.5732776e-04
 -3.7565210e-03   4.4895138e-04
  1.0921911e+00   1.8259342e-04
 -1.0516156e+00   2.2072825e-04
  9.0927672e-01   1.7220285e-04
  1.1573363e-03   2.5341503e-04
  2.7787644e-01   2.1459383e-04
 -8.8288600e-04   3.1326225e-04
  1.2520756e-02   1.5415413e-03
  3.8524112e-04   5.9587264e-04
 -1.5400309e-04   1.8748337e-04
 -4.0449035e-05   3.3815808e-04
  1.0869213e-01   4.6859175e-04
  1.0638711e-02   2.9908968e-04
  8.9191468e-05   4.3499508e-04
 -2.2574735e-03   2.3828109e-04
  7.3761302e-01   2.5106009e-04
  8.3230119e-03   7.7600987e-04
  4.6267453e-01   6.3856738e-04
  3.0609614e-01   3.1290617e-04
  2.1083066e-03   4.4265171e-04
 -7.2914794e-02   3.6657692e-04
  1.5278632e-03   3.6697002e-04
  9.7340509e-02   9.2609657e-04
  1.8762608e-01   6.1169494e-04
  8.7515672e-04   6.7034125e-04
  1.9528430e-03   5.4780534e-04
  3.2213517e-03   1.0534888e-03
 -2.8586615e-04   3.8765481e-04
  2.2309553e-03   5.1525579e-04
  1.2351094e-03   3.0682242e-04
  1.6711330e-03   5.2611250e-04
 -1.9673666e-04   2.1891890e-04
 -1.4657861e-03   4.4913392e-04
  1.6254850e-03   3.9520336e-04
 -2.1681459e-05   6.6495914e-04
  2.7937195e-04   5.1765621e-04
  1.1505374e-03   1.1168873e-03
  1.3743404e-03   3.8978769e-04
  6.6565443e-04   7.2354294e-04
  1.1125868e-03   4.5841080e-04
 -3.4166626e-03   4.9282995e-04
 -1.4922177e-04   3.8908742e-04
 -9.6270500e-04   4.4371089e-04
 -1.4017359e-04   9.0470799e-04
 -8.1946631e-04   1.9398765e-04
  1.6740389e-04   2.7034871e-04
  4.9748359e-04   3.0152578e-04
  3.2670056e-03   2.4740695e-04
 -2.2164448e-03   5.0498883e-04
 -3.7359567e-03   3.9199027e-04
 -4.2389429e-04   8.1804214e-04
  3.1631461e-03   3.3782868e-04
  2.1063531e-04   2.2473471e-04
  2.1359527e-03   5.7680911e-04
 -1.4424055e-03   1.0725476e-03
  1.0106583e-03   7.1798451e-04
  2.6435300e-03   4.4536174e-04
  3.4319230e-03   5.9914408e-04
 -1.1990350e-03   6.5031473e-04
 -2.1948966e-03   4.2780800e-04
 -7.0166803e-04   5.9466629e-04
 -1.1318120e-01   7.0179623e-05
 -1.1118709e-01   7.5033393e-05
  1.2987155e-02   1.4747842e-04
  4.4817287e-03   8.3293628e-05
  1.2342340e-01   1.8586277e-04
 -8.9282007e-04   7.7216415e-04
  3.1454392e-02   8.6419855e-04
  6.6005153e-04   1.3633916e-04
 -4.6831340e-04   3.8990527e-04
  6.2243985e-03   6.8306620e-04
  6.0437066e-03   1.3075789e-03
  1.3026239e-03   2.5523742e-04
 -4.0432431e-02   2.1136444e-04
 -6.4721212e-02   2.2282150e-04
 -2.6509044e-04   3.4016836e-04
  7.3394872e-02   1.0999960e-03
  2.5380754e-03   2.9920318e-04
 -7.6249875e-03   1.4845599e-04
  2.2846791e-03   1.9548286e-04
  8.7822929e-02   1.1514455e-04
 -9.7278744e-04   4.0084874e-04
  2.3617685e-01   2.1455381e-03
  7.8467265e-02   9.9932658e-04
  2.8559633e-03   3.4728178e-04
 -3.6857828e-02   1.0001515e-04
  5.9943218e-02   3.4542463e-03
  2.8049250e-04   6.1446469e-04
  6.3021056e-04   1.3590234e-04
  1.0665449e-03   2.3309798e-04
 -1.3070319e-02   1.2933408e-03
 -1.6349608e-03   2.5374108e-04
  3.1084890e-04   1.5078727e-04
  5.6580798e-04   3.5635245e-04
 -1.1068445e-03   3.3223783e-04
 -3.2551222e-02   1.6422698e-04
 -1.1011686e-03   2.1356644e-04
 -2.7351729e-03   4.1844373e-04
 -4.6080028e-04   3.1832716e-04
  2.7244713e-03   2.2945879e-04
 -9.2301780e-01   1.4022410e-04
 -1.3766354e-03   3.9549280e-04
  1.4222431e-05   4.0061155e-04
  1.3871825e-03   1.3597692e-04
  2.4965506e-03   2.5147948e-04
 -2.0057512e-03   5.2607607e-04
  3.5878587e-05   2.8916387e-04
  2.4560008e-03   8.6663337e-04
  6.3214102e-04   2.2814835e-04
  2.9414392e-04   4.4786389e-04
 -1.3569962e-04   1.7761361e-04
 -1.3456850e-03   6.0708460e-04
 -3.3647858e-02   1.1808670e-03
 -4.3369233e-04   8.0944627e-04
 -5.6611542e-03   3.7291879e-04
 -5.4242933e-05   2.8959304e-04
 -1.8603688e-03   3.2304710e-04
 -3.1204622e-03   8.8963658e-04
  1.0592473e-03   6.4656942e-04
 -2.7451786e-04   4.5924008e-04
  1.7601366e-03   4.8073084e-04
  6.6073751e-01   9.3132410e-05
  8.1068635e-01   5.4874807e-05
 -4.1647577e-01   8.4556297e-05
 -4.1951020e-03   2.1767034e-04
  3.7408170e-01   4.7899775e-05
 -5.9350950e-01   5.7003729e-04
  9.5217943e-04   1.3535743e-03
 -4.6700132e-01   9.8702195e-04
  4.1929405e-02   3.2818416e-04
  9.2415464e-01   8.4567693e-04
  1.4094803e-01   4.0508996e-04
 -1.2325228e-01   3.2577166e-04
 -4.4678462e-01   1.8342196e-04
 -3.7782820e-04   1.0658689e-04
 -8.8058197e-01   4.7048196e-04
 -6.8204629e-01   1.3114426e-03
 -2.3363132e-02   4.1384509e-04
  6.7738213e-02   1.2326123e-04
  1.3972971e-01   2.3424294e-04
  1.9775343e-01   1.3891372e-04
  7.0426246e-04   1.0449084e-03
 -3.6368886e-01   2.7505637e-04
 -3.3086801e-01   1.3745402e-03
  2.3311001e-01   2.5786710e-04
  5.9939343e-01   5.1717006e-04
 -1.3562425e-03   3.5191662e-04
  2.9045041e-03   4.5556683e-04
 -1.0814896e-05   5.6000543e-04
 -1.3626595e-02   1.0505167e-03
  6.1762191e-02   5.3730025e-04
  1.3919042e+00   4.0407814e-04
  2.0609093e-03   5.2236585e-04
  2.5037533e-04   1.0107892e-04
 -3.4048220e-03   5.5803527e-04
 -3.3249334e-01   2.3983006e-04
  1.1193219e-03   6.3518313e-04
 -4.3418765e-04   3.6134195e-04
 -5.5816770e-01   3.0605722e-04
 -4.7324917e-05   4.4119122e-04
 -2.8793438e-04   4.2770649e-04
  4.7711583e-04   4.2048359e-04
 -1.8433391e-03   3.4469613e-04
  3.5517833e-03   2.3689833e-04
 -1.5217342e-03   5.3195597e-04
  8.7585226e-02   3.7638663e-04
  2.2505583e-04   6.4408459e-04
 -2.2148176e-03   4.2410326e-04
  1.6902145e-02   2.1590691e-04
  4.9295649e-04   3.5907835e-04
  8.7387642e-05   3.6854047e-04
 -8.9317089e-04   3.3852877e-04
 -2.3059999e-03   1.1122414e-03
 -1.5325513e-04   8.6993555e-04
 -1.4363768e-03   6.5082242e-04
 -1.6797103e-03   7.6176174e-04
  5.5438495e-04   8.2947168e-04
 -6.6262361e-04   5.4816535e-04
 -1.0798549e-03   5.4308027e-04
  9.2532911e-04   4.2711085e-04
  8.0531259e-04   4.5316489e-04
  1.1678895e-01   2.4202556e-04
  6.9711071e-01   1.9598468e-04
  2.0044832e-02   2.4647723e-04
  1.0039227e-03   2.4752037e-04
  1.1029967e-01   1.3943153e-04
 -4.4954061e-03   1.0778818e-04
  1.1467001e-04   6.9504988e-04
  8.2283205e-04   4.0173638e-04
  1.1305484e-03   4.4794151e-04
  1.7828771e-04   5.9183908e-04
  6.3212297e-04   4.9795303e-04
 -1.2245511e-01   5.9858517e-04
 -1.1204629e-03   3.2079223e-04
  2.5776217e-03   5.0944404e-04
 -8.0450881e-01   4.3241412e-04
 -2.0153139e-02   1.6803860e-03
  6.7850202e-04   6.7092205e-04
  2.1166457e-01   3.4794310e-04
  3.9706560e-04   6.8963243e-04
  7.9972053e-01   3.4707546e-04
  1.3763478e-04   4.6776829e-04
 -4.7374040e-02   2.9072578e-03
 -2.7024677e-02   2.6043477e-03
  4.6593798e-03   5.5968331e-04
 -3.1318676e-05   5.5700674e-04
 -2.1922546e-03   8.2282460e-04
  5.6065712e-03   6.9895817e-04
 -5.2565597e-03   4.9102225e-04
 -1.6501833e-03   7.9701177e-04
 -1.3174082e-05   8.3416840e-04
 -3.7486443e-01   6.3739986e-05
 -4.8172823e-01   4.5904148e-05
  1.4470071e+00   8.3733794e-05
  2.1048468e-02   1.1996752e-04
  1.4091599e+00   6.5393091e-05
 -4.3839690e-01   3.7199134e-04
 -2.3642771e-03   7.1769953e-04
 -5.0089097e-01   1.0209441e-03
  2.1747313e-02   3.5935440e-04
  7.3646611e-01   4.2351813e-04
  1.6516932e+00   3.4253567e-04
 -1.7620291e-01   5.5053987e-04
 -2.3504329e+00   3.2174872e-04
 -5.3511459e-01   2.7850008e-04
 -3.0558899e-01   8.7915956e-05
  6.5613827e-03   7.8591716e-04
  5.9528197e-03   3.0164764e-04
  3.3280270e+00   8.5254382e-05
  3.1899244e-01   7.4643693e-05
 -1.7070509e+00   2.7157427e-04
 -2.6072577e-01   8.0181606e-04
  1.5644612e-03   5.8433204e-04
 -8.0443773e-04   2.0717007e-04
  1.1113269e+00   4.6671639e-04
 -2.6930285e-01   4.0428355e-04
  4.7849305e-03   1.1170432e-03
  2.0337809e-02   2.8717138e-03
 -3.0944850e-03   7.6407904e-04
  8.9159980e-04   6.4503169e-04
 -1.6320817e-01   1.4817562e-03
 -8.2157522e-01   4.6479276e-05
  3.9361110e-01   1.0996598e-04
 -4.1842276e-01   7.2044299e-05
  4.0663725e-01   7.9511272e-05
  4.4088396e-01   6.7226305e-05
 -5.0039107e-01   3.8528474e-04
 -1.9987349e-01   2.5807298e-04
 -1.5684307e-01   1.4501694e-04
 -9.6219122e-01   4.3842014e-05
 -8.4339458e-01   4.3667477e-04
 -8.8610607e-01   1.2081379e-04
 -1.2150304e+00   1.7862354e-04
 -3.5273674e-01   1.2730005e-04
 -4.3473065e-01   1.1800504e-04
  3.3560061e-01   1.2342900e-04
 -7.2109240e-01   6.4561999e-04
 -2.6052129e+00   1.0105195e-04
  3.4654355e-01   1.9913414e-05
 -8.0727530e-01   1.8459579e-04
 -4.9360424e-02   8.5441105e-05
 -1.4261518e-03   1.9965121e-04
 -1.0452857e+00   1.3815291e-04
 -4.9297774e-01   5.4984196e-04
  6.8577616e-03   1.9474837e-04
  1.0820092e+00   2.1179722e-04
 -5.0614458e-01   3.3846917e-03
 -8.6348556e-02   1.1044996e-03
 -2.1405129e-02   3.0554517e-04
  8.4733583e-02   1.4700680e-03
  7.4576616e-01   1.7392670e-04
 -9.1586810e-01   3.0833598e-05
  1.2343498e-01   1.3580147e-04
  6.9909459e-01   3.5557292e-05
 -7.5962514e-01   7.7059289e-05
 -2.4953096e-01   3.9080482e-05
 -1.2217386e-04   4.1767367e-04
 -1.4600693e-03   2.4741929e-04
  6.2609720e-01   3.7100021e-04
  2.6256952e-01   1.3775706e-04
  1.1821674e+00   5.2843033e-04
  2.6521862e-01   3.4405728e-04
 -2.3265034e-02   3.4985857e-04
 -5.2377075e-01   6.5927074e-05
 -4.9272433e-02   3.8211822e-04
 -3.3824363e-01   1.2306996e-04
 -3.3651760e-01   5.5938913e-04
 -2.4376085e+00   1.5016849e-04
 -1.4093566e+00   1.4342531e-04
 -5.3692186e-01   1.5816912e-04
  1.5620853e+00   5.8088066e-05
  8.1417168e-04   3.7310584e-04
 -1.7862097e+00   5.1300513e-04
 -1.4836941e+00   4.4414200e-04
 -3.8631785e-01   2.5197695e-04
 -9.4893359e-02   3.3453794e-04
 -2.1179968e-01   1.2848331e-03
  7.5561978e-02   1.2123344e-04
 -1.4686263e-03   2.6965723e-04
 -2.8808632e-01   1.4510889e-03
 -5.4532301e-01   6.9277291e-04
 -1.3855180e+00   1.0674960e-04
 -6.6624826e-01   3.7233590e-04
  1.3867423e-01   5.4968186e-05
 -2.5387199e-04   1.4491178e-04
  1.8401022e+00   1.1213376e-04
  5.9346762e-04   6.0141570e-04
  3.0261573e-01   1.7034254e-03
  9.7825075e-04   3.5341457e-04
 -5.0139827e-01   7.1866182e-04
  4.3100151e-03   6.4424629e-04
  2.2544994e-03   3.7777901e-04
  3.8702688e-03   5.7836529e-04
 -9.6847879e-04   5.2529376e-04
 -9.9840127e-02   5.8022054e-04
 -4.2420180e-04   6.3144072e-04
  4.1299867e-03   8.3594606e-04
  9.5502386e-05   3.9655803e-04
 -2.7277437e-04   6.0242374e-04
 -7.9945028e-01   7.1578822e-04
  1.2339765e-01   2.5221054e-04
 -1.4677099e-03   3.4162367e-04
  7.7537820e-02   1.8315107e-03
 -1.6506077e-05   3.6191987e-04
  1.2549672e-03   8.5079198e-04
  2.0976642e-03   5.9656420e-04
  2.5320419e-03   1.1326984e-03
 -2.5573719e-04   3.9605692e-04
  3.3027300e-04   3.4554387e-04
 -6.7484444e-03   1.1380847e-03
  8.8745955e-04   1.0736739e-03
 -2.9783010e-02   2.0514666e-05
  2.6651278e-01   7.0214330e-05
  3.9455969e-02   3.8136361e-05
 -3.2029012e-01   8.2765800e-05
 -1.0080487e-01   2.7982538e-05
 -1.2030367e+00   6.3048018e-04
  1.0323117e+00   1.7979891e-04
  2.9428129e-03   4.4569848e-04
  7.8680921e-01   1.7668169e-04
  2.3517532e-03   3.6799876e-04
  5.9686743e-02   3.5413416e-04
  1.9055889e+00   1.1805922e-04
 -8.5688084e-02   6.6623616e-05
  1.7006582e-02   1.3423804e-04
 -4.3714720e-01   2.9378905e-04
  1.6268548e-01   7.3164678e-04
  2.0502062e+00   3.0931234e-04
 -4.0046349e-01   1.1176213e-04
  8.0702955e-01   1.9635151e-04
  4.3116191e-01   6.7574947e-05
 -1.3790230e-01   3.4460064e-04
  9.7337753e-01   4.9910462e-04
  2.9422489e-01   7.4211968e-04
  3.7862217e-01   1.1817259e-04
 -6.2411088e-01   4.7091825e-04
  2.3583637e-01   3.3280554e-03
 -1.6001143e-03   6.7666126e-04
  4.7835863e-01   6.4296264e-04
  1.2635630e-01   6.4286921e-04
 -9.0031652e-03   7.1468315e-04
  1.7267278e+00   1.7629778e-04
  1.6548716e+00   1.7994779e-04
  4.8009878e-01   9.5472344e-05
  2.6031253e-01   3.0650813e-04
 -7.5990558e-01   8.8262896e-05
  3.7331287e-02   2.0218454e-03
 -2.8845450e-01   7.6250464e-04
  6.0387693e-02   2.4740212e-04
  1.3510695e+00   6.8446324e-04
 -3.9231819e-01   1.2155729e-03
 -7.5253032e-02   1.6422507e-03
  2.3410468e-04   2.6404453e-04
  1.8537990e+00   7.2617707e-04
  1.2325053e+00   9.2312531e-04
  1.5656427e+00   4.3009841e-04
 -1.2128197e-03   2.9242740e-04
  2.9887494e-03   6.0278736e-04
  1.1894891e+00   6.4708162e-05
  9.0690368e-01   7.1579631e-04
  1.1555464e+00   2.1512309e-04
  1.8488117e-01   3.1674933e-03
 -1.2595003e-02   8.5098890e-04
  4.4048764e-03   3.7808466e-04
 -4.6096299e-02   6.3378882e-04
  4.6195191e-01   5.9300981e-04
 -1.2924381e-03   5.2064983e-04
  3.5118200e-03   3.0295245e-04
  5.0844159e-02   3.2760028e-03
  5.9773713e-01   2.0865207e-03
 -4.1376390e-03   6.0883636e-04
  2.9171968e-01   9.0486617e-05
  1.1378477e+00   5.1061204e-04
 -5.9927505e-01   1.0878653e-04
 -1.8208123e+00   1.3758005e-04
  3.1262138e-01   7.8988291e-05
  3.4054428e-02   6.1646424e-04
 -3.5848141e-01   1.1534544e-03
  1.2650935e-03   1.0591613e-03
  8.5527158e-01   2.1667451e-04
 -1.6760159e-01   1.9492088e-03
 -1.0836865e-02   5.1669293e-04
 -8.5243033e-03   4.9615442e-04
  4.0832612e-01   5.7276967e-04
  1.4699118e+00   6.1839254e-04
 -1.7439204e-01   1.9050918e-04
 -1.8210815e-01   2.1914947e-03
  5.2947456e-01   2.7530742e-04
 -1.0934769e-01   1.9169673e-04
  1.8625703e-01   7.8776100e-04
 -1.2305403e+00   1.3906634e-04
  1.1378365e-02   3.3229969e-03
 -2.2815652e-01   3.0524028e-03
 -2.8339735e-01   1.4517754e-03
  4.4959721e-01   6.8068848e-04
 -4.1662090e-05   5.8517786e-04
 -1.1632901e-02   1.9769319e-03
 -4.4722095e-01   7.1590481e-04
 -9.9574472e-04   3.6303990e-04
  5.7290890e-03   1.6244316e-03
 -8.8709855e-04   5.3175614e-04
  7.2781293e-04   2.4465722e-04
  2.4887598e-03   4.3041483e-04
 -6.5102549e-03   3.1820842e-04
  4.4728367e-05   5.3087412e-04
 -1.2339479e-03   5.1222753e-04
  4.8292868e-04   3.5032036e-04
  1.8563181e-03   2.7136123e-04
  4.9566769e-04   1.3285349e-03
  3.9349310e-04   3.7622938e-04
 -7.9663951e-05   6.2472036e-04
 -2.1946371e-04   1.2225547e-03
 -1.7479232e-03   8.0303370e-04
 -6.1611709e-04   7.3694217e-04
 -2.2787526e-03   9.4392989e-04
  2.7451762e-03   6.7399599e-04
  5.9216027e-03   8.8073948e-04
  6.9977250e-04   4.6141233e-04
  6.7364468e-05   5.7246396e-04
 -7.6707959e-04   5.1054847e-04
 -1.4837433e-03   3.0976796e-04
  5.3115618e-05   2.5717856e-04
 -1.5065189e-03   6.4131210e-04
  6.7444501e-04   6.6130311e-04
  1.1499259e-03   3.9979856e-04
  1.6618561e-04   5.1665050e-04
 -8.1439124e-05   3.9945994e-04
 -1.3508884e-03   8.2867086e-04
  7.4265874e-05   3.0475642e-04
  1.2022399e-03   4.0852232e-04
  7.7619508e-04   1.3784316e-04
  7.3679215e-01   3.4263506e-04
  3.6504632e-04   1.5549817e-04
 -3.3570039e-03   1.7829801e-04
  2.1290573e-01   6.6080171e-04
 -1.2372214e-02   1.5773468e-04
 -5.4006075e-04   2.9615112e-04
 -4.1428016e-04   8.1799913e-04
  1.0067764e-03   4.6181481e-04
  8.4849358e-02   8.2293351e-04
 -9.8222739e-04   6.3859083e-04
 -2.7149082e-03   6.2432769e-04
  1.2234881e-03   1.5684709e-04
 -1.6140259e-03   1.8345285e-04
  7.0117449e-04   1.7129953e-04
  7.1171147e-01   4.3669497e-04
  5.5007480e-05   2.9543281e-04
  8.3146500e-04   7.6206500e-04
 -4.0058938e-01   1.9280429e-04
 -4.4420281e-05   3.5867421e-04
  8.2284561e-04   2.0897464e-04
  1.5122427e-03   3.3314450e-04
  6.1250484e-04   6.5420201e-04
  1.6218569e-04   5.2815408e-04
 -2.1008116e-03   5.5616937e-04
 -3.6095272e-04   7.0545101e-04
 -8.4853341e-04   7.1952102e-04
  9.3195750e-04   1.2656384e-04
 -1.0423354e-03   6.1143650e-04
 -2.4551430e-04   5.9002556e-04
  3.7879322e-03   6.4290490e-04
 -5.7246561e-05   2.1773529e-04
 -2.2009417e-02   3.9382809e-04
  7.4683153e-03   5.2824739e-04
  1.4249989e-03   2.2222719e-04
  7.2669375e-01   3.7735861e-04
 -1.9668761e-01   5.8950222e-04
  3.5225195e-03   3.6707689e-04
 -1.0879870e-01   9.4567914e-04
  6.3040399e-04   2.1757722e-04
  3.4159029e-01   9.4346132e-04
  2.7505675e-01   5.3106644e-04
 -2.0156501e-01   7.2927820e-04
 -2.8433973e-01   2.3390820e-04
 -4.9873797e-04   4.3705644e-04
 -3.9687458e-01   4.5054965e-04
 -1.6413236e-04   4.8745811e-04
 -2.2015397e-03   2.2956824e-04
 -5.7479221e-04   3.6124256e-04
  2.6000561e-02   5.8528467e-04
  4.8493594e-02   2.3917876e-04
 -3.1144442e-03   6.5857585e-04
 -4.6735094e-03   5.5979984e-04
  4.1617983e-04   5.6827866e-04
  3.9341420e-02   8.9976046e-04
 -5.7309084e-02   4.5260007e-04
  2.2650682e-03   9.9213072e-04
  5.5224029e-04   7.4766448e-04
 -1.5180521e-03   5.7455309e-04
 -2.7957566e-03   7.5527892e-04
 -1.4361067e-03   2.2666076e-04
  2.9773048e-01   1.6957203e-04
  2.8662303e-01   1.3161896e-04
 -1.4733845e-01   6.3305219e-05
  8.2172096e-01   1.3916203e-04
 -4.2905787e-01   1.7164710e-04
  1.9318617e-03   3.9368623e-04
  1.5368903e-03   3.4616920e-04
  3.0956551e-01   2.9213060e-04
  4.6620584e-01   5.0043274e-04
  2.1233296e-01   2.1229225e-04
  1.4937001e-01   8.0286962e-04
  1.4067343e-03   2.7455279e-04
 -1.7274984e+00   8.8422967e-05
  5.4476756e-01   6.6136199e-05
 -8.5699148e-02   3.0492304e-04
  1.9302112e-01   1.3850644e-03
 -1.3693213e-03   4.3398669e-04
  5.1180065e-01   1.2678630e-04
  9.2814660e-01   3.3762693e-04
 -1.1779666e+00   9.0331974e-05
 -1.7493155e-03   7.4530748e-04
  3.2785904e-01   5.8732025e-04
  4.1999044e-03   7.7344023e-04
  9.9638693e-02   2.1353476e-04
 -3.6023587e-01   7.2387757e-04
  8.1464998e-02   5.7433704e-03
  5.2742730e-03   5.0710217e-04
 -6.5577314e-03   8.3670247e-04
 -2.9416734e-01   5.8377814e-04
 -2.0258534e-03   6.3472072e-04
  1.2518749e+00   6.3228239e-05
  4.3316372e-02   3.3276316e-04
 -5.9064937e-01   2.4476458e-04
  2.4147804e+00   3.3205358e-04
  1.0003378e+00   2.5345018e-04
  2.7515239e-01   4.9158942e-04
  7.0353801e-04   6.9927570e-04
  5.1218393e-04   1.5318242e-04
  1.8425009e-01   4.6512694e-04
 -1.0260105e+00   1.4387912e-03
 -5.6778669e-01   9.7964751e-04
  7.6685828e-01   1.2613010e-03
  1.4720706e+00   5.4138561e-04
 -2.4126904e-01   3.2663989e-04
  6.0529023e-01   4.3427653e-04
  1.4316484e-03   1.6318454e-04
  4.6165791e-01   1.4208498e-03
  2.9383755e-01   3.6509021e-04
 -1.9878242e-02   6.7119021e-04
  1.6181729e-03   2.9854363e-04
  2.1392409e-02   1.6974896e-03
 -2.4200799e-03   7.5629965e-04
 -8.8366924e-04   5.7675113e-04
 -1.0498599e-02   5.8026792e-04
  1.5129013e-01   1.2111386e-03
  8.3009322e-04   9.3222596e-04
 -3.3778781e-03   9.5875037e-04
 -1.3487616e-03   7.6423713e-04
  1.4109653e-01   1.2260152e-03
  4.7879141e-02   2.5344719e-03
 -1.4903616e+00   9.6712552e-05
  1.0378364e-02   2.2181588e-04
  5.2851290e-01   1.6674749e-04
 -3.3963335e-01   7.3166761e-05
  7.7820718e-02   9.1266644e-05
 -4.6093138e-03   9.4664894e-04
 -4.7605037e-04   8.3526294e-04
 -6.3272775e-04   6.3315476e-04
  4.7928284e-04   3.2845858e-04
  9.6224084e-02   1.8499427e-03
  1.1874360e-02   3.8280850e-04
 -2.9444161e-01   4.2474567e-04
 -3.9540523e-01   4.4155907e-04
 -9.3070734e-03   2.4361174e-04
 -3.4994727e-01   3.9850562e-04
 -1.5119000e-01   2.0762829e-03
 -1.6599134e-01   5.0553278e-04
 -3.9066866e-01   4.4670203e-04
 -3.1808035e-03   3.0692661e-04
  1.9827005e-01   2.3805785e-04
 -1.9221675e-03   3.3187581e-04
 -2.2404963e-01   1.5084519e-03
 -1.0623179e-01   1.5302548e-03
 -1.6940236e-03   2.2156435e-04
  1.3635766e-03   2.2368868e-04
 -5.4615489e-03   7.2832714e-04
 -5.0111115e-04   2.6644339e-04
  1.5294099e-04   6.2947808e-04
 -7.1768992e-02   2.6227455e-03
 -3.1626804e-04   4.8313779e-04
  4.8624867e-01   4.1570011e-04
  3.5980740e-03   3.0019510e-04
 -8.9953924e-03   2.9211197e-04
 -5.0076242e-03   5.9211225e-04
  4.5758268e-01   5.7521340e-04
  8.7777135e-04   2.7932762e-04
  2.5552583e-03   8.4200554e-04
  7.9466129e-04   5.2476127e-04
  2.6637227e-03   3.8518643e-04
 -1.0396703e-02   6.6811562e-04
 -1.3047223e-03   3.7316230e-04
  5.9628824e-04   8.3574525e-04
  6.9940549e-01   3.5246409e-04
  2.6074196e-03   4.3672905e-04
  7.8759827e-02   7.5518130e-04
  1.7410886e-04   3.6192211e-04
 -1.6525944e-03   1.6023230e-04
  9.2604898e-02   1.9995208e-04
 -8.6063304e-04   7.7758217e-04
  3.1989422e-02   2.2661859e-04
  2.7462200e-04   4.8790255e-04
 -2.2285145e-03   5.3179456e-04
 -6.6344226e-03   2.3477292e-04
  4.4073336e-04   5.1060354e-04
  8.4968138e-04   6.9879519e-04
 -2.3770984e-04   1.8527808e-04
 -2.0570045e-03   8.5000624e-04
 -3.8839467e-03   3.7378739e-04
  2.0027142e-03   5.2177778e-04
 -7.3838036e-04   6.5603550e-04
 -6.4505177e-05   5.6566531e-04
 -1.5903884e-04   6.7903759e-04
  1.0790265e-03   2.6321632e-04
 -7.3728705e-04   7.1884238e-04
 -7.2493957e-04   4.4292130e-04
  1.9252203e-04   7.2756200e-04
 -5.9764076e-04   4.7666678e-04
  2.7325453e-04   5.3514057e-04
  8.6301472e-05   7.5223396e-04
 -1.5442534e-03   6.2007143e-04
  1.4485870e-04   8.1305573e-04
 -2.4199868e-03   4.5563164e-04
 -3.2758582e-04   4.5869258e-04
  1.2857739e-03   1.8873975e-04
  8.6648302e-04   7.2376267e-04
  8.9608936e-04   2.8156204e-04
 -1.4368957e-03   4.6657815e-04
  5.6362187e-04   5.0917099e-04
 -2.8059240e-03   7.0505170e-04
 -1.7223703e-03   5.4542115e-04
  2.6068449e-04   5.6044210e-04
 -1.3052080e-04   7.7232078e-04
 -5.6559377e-04   5.7697954e-04
  2.8079946e-04   4.0080029e-04
  6.9789123e-04   3.6212354e-04
  2.2752827e-03   1.1336516e-03
  3.7546252e-04   5.9723831e-04
 -5.3872389e-04   4.2993514e-04
  1.5318808e-04   1.0145019e-03
 -1.2951862e-04   2.2756669e-04
  6.2427396e-01   9.9111327e-05
  4.4332730e-04   8.9032773e-04
  5.9468421e-04   5.9387821e-04
  1.7501164e-04   4.8767106e-04
 -1.0356216e+00   9.3428425e-05
 -4.4599870e-01   8.3957777e-05
  3.4196565e-01   6.2530313e-04
 -7.7014017e-01   1.9172627e-04
  5.6012821e-01   1.0340565e-04
  2.9602263e-05   6.5834622e-04
  1.5583819e-04   5.1673991e-04
  1.4068744e-04   5.4832641e-04
  1.9533381e+00   3.7948153e-05
  6.3499391e-01   2.9350008e-04
  6.7255920e-01   1.3172934e-04
 -8.5675639e-01   3.4559213e-05
 -3.2636726e-01   1.0153367e-04
 -1.7382352e+00   4.2091593e-05
  5.8102298e-01   1.2827777e-04
  1.3153794e+00   3.5864963e-05
  4.7828978e-01   3.5871173e-05
  6.7949307e-01   2.0772512e-05
 -5.6934764e-04   3.6292916e-04
  2.5003257e-01   2.9543048e-04
 -3.6385754e-01   1.1736502e-04
  3.6808676e-01   1.5083037e-04
  6.1244035e-01   5.8494286e-05
 -2.0630085e+00   7.5815973e-05
  2.6711479e-01   1.6614790e-04
  3.6240774e-04   5.2479975e-04
  4.2505774e-01   7.3238662e-05
  4.4665299e-04   6.6648948e-04
 -9.2722820e-03   1.1035867e-04
 -5.8133528e-02   3.7345988e-05
  2.5403115e-01   2.8947825e-05
  3.0828074e-01   1.4840353e-05
 -1.3481225e-01   1.7347164e-05