  1.9923938e-04   1.7334610e-04
 -5.4990142e-06   3.2928970e-04
  1.1689872e-03   4.3769967e-04
 -1.0931978e-03   5.5236381e-04
  3.7670788e-01   4.4394407e-04
  1.8838085e-03   4.1167470e-04
 -8.7763288e-04   5.5980164e-04
  1.8430693e-03   1.1122793e-04
 -2.9811128e-03   2.2821210e-04
 -2.1145573e-02   1.0052543e-03
  8.9959498e-04   3.1132126e-04
 -3.9230022e-04   5.2067323e-04
  2.3912650e-03   6.0361513e-04
 -1.1770913e-03   3.8557051e-04
 -2.4448007e-03   3.6382649e-04
  8.5618370e-04   4.8295871e-04
 -3.7678861e-04   1.2050300e-04
 -6.5728035e-03   2.3231823e-04
  3.8940896e-04   3.3181382e-04
 -8.3460426e-04   6.6319597e-04
 -1.5951649e-03   2.2541809e-04
 -2.3896398e-03   6.4286136e-04
 -5.8850050e-03   2.5982357e-04
  1.3394926e-03   2.2195950e-04
 -9.5208106e-04   1.9765817e-04
 -4.8762193e-04   2.3177525e-04
  1.6566566e-03   3.3369643e-04
 -8.0288487e-04   6.8431385e-05
  4.2091771e-05   1.7092926e-04
 -7.2127455e-05   4.5762898e-04
  1.1571825e-03   4.4440632e-04
 -3.5805529e-04   9.8292809e-04
  6.8517146e-04   2.5183571e-04
 -1.4233274e-03   5.1876111e-04
 -9.0327940e-04   3.7513193e-04
 -4.2248872e-04   3.1237048e-04
  1.1033829e-03   5.0720968e-04
  2.9641746e-03   4.7640852e-04
  2.8235026e-04   3.8917840e-04
 -9.1112108e-04   5.3534401e-04
  9.4521447e-04   8.7844278e-04
 -1.2215214e-02   1.4286500e-04
 -1.7611613e-03   2.4733940e-04
 -6.7844737e-04   2.7425645e-04
  3.0735645e-01   9.6037140e-05
 -2.1517770e-02   7.1635892e-05
  1.6328877e-02   6.9965266e-05
 -3.9510906e-02   6.5339424e-05
 -3.5284624e-02   1.4480826e-05
  9.3395635e-02   7.7628596e-05
  2.0497073e-05   8.2612918e-05
  1.3570330e-01   3.5535966e-05
 -2.3715152e-01   8.0705693e-05
 -2.3097633e-01   1.4816779e-04
 -2.7656732e-02   1.0594282e-04
  2.2261417e-01   6.8322443e-05
  3.6021505e-04   2.4562582e-04
  2.3878347e-03   3.3162136e-04
 -3.6109999e-01   3.7974905e-04
 -7.4078836e-02   1.8924942e-04
  2.7945423e-02   1.7908194e-05
 -3.0040599e-03   3.3070035e-05
  1.8821852e-01   3.8736951e-05
 -1.5912099e-02   1.1923132e-04
 -4.7746744e-02   1.2747958e-04
 -1.3183437e-01   1.4644052e-04
 -4.8279115e-03   3.1593056e-05
 -5.0808232e-02   4.3391694e-05
  3.5584019e-04   1.4784023e-04
  2.1126173e-01   4.1753570e-05
 -3.1710796e-03   1.6064488e-04
  2.2213622e-03   1.9182577e-05
 -4.1756675e-02   1.0289494e-04
  4.8722158e-04   1.0692560e-04
  2.8490928e-01   1.7110263e-04
 -2.7671093e-02   8.4924315e-05
  2.0993575e-01   2.6382344e-05
 -3.3724701e-01   4.6350693e-04
  7.4951820e-02   1.1744973e-04
 -5.4156359e-02   4.2183400e-04
 -1.0231224e-01   1.6047078e-04
 -2.2628166e-02   2.8261024e-04
  1.6306016e-04   3.1655078e-04
 -5.2312907e-04   1.2709432e-04
 -1.7062725e-01   1.0992297e-03
 -1.3182290e-01   4.7406027e-04
  1.3594534e-01   1.1512570e-03
 -8.8460289e-02   5.2744593e-04
  1.1538776e+00   4.2140124e-05
 -3.1008264e-01   7.8766228e-05
 -1.5162477e+00   4.4578563e-05
  2.3280114e-01   7.5376585e-05
 -1.8159302e-01   8.8968745e-06
 -8.8021927e-02   4.0918323e-05
  1.0582011e+00   8.1588965e-05
 -1.2268183e-01   1.8809304e-05
 -9.6380204e-01   8.4622603e-05
 -1.4183201e-01   3.7940757e-04
 -1.9150896e-01   1.9316909e-04
  1.2247532e-01   7.6728720e-05
 -9.8582923e-02   1.3247083e-04
  8.2637239e-01   9.3128585e-04
 -4.2905399e-01   3.3187648e-04
 -1.6224410e-01   1.4829401e-04
 -5.7833028e-01   6.3826898e-05
 -2.4584215e-03   1.1838991e-04
 -1.2333088e-01   7.1922812e-05
  1.9199094e-01   1.2641177e-04
 -8.3072221e-01   7.3794006e-05
 -1.0439066e-01   1.4769274e-04
 -2.3246889e-01   1.5069643e-04
  6.9178671e-01   4.4909029e-05
  3.4335572e-03   1.2818475e-04
 -1.0962176e-01   1.3013001e-05
  1.0336528e-02   1.4180491e-04
 -6.5883678e-01   4.2076514e-05
 -4.3346480e-01   9.7858974e-05
 -5.0624245e-01   9.8064498e-05
 -2.6306994e-03   2.6271120e-04
  6.6832700e-03   1.0111269e-04
 -3.0433637e-01   8.4550433e-05
 -6.0650803e-02   4.3467819e-04
 -2.0827374e-01   1.7802636e-04
 -1.5129602e-01   1.5163695e-04
 -1.0384300e-01   5.4544194e-05
 -5.8117961e-03   1.6418133e-04
  9.4188094e-02   1.9603924e-04
 -5.9758024e-03   1.6872774e-04
 -1.9044587e-01   8.4999419e-04
 -8.9001618e-02   5.3596956e-04
  4.8527382e-02   1.2144881e-03
  2.7357039e-04   2.2677517e-04
  5.5661196e-01   1.9984179e-04
 -3.4962809e-01   9.2947856e-05
 -6.3675635e-02   8.7123342e-05
  7.2632617e-01   9.7533695e-05
  2.8678613e-02   2.6545446e-05
  8.8556522e-01   1.6837900e-04
  8.8290358e-01   5.8701884e-05
 -1.9426502e-01   1.0251029e-04
 -6.6090417e-01   4.9767565e-05
 -2.3154445e+00   2.4694647e-05
 -3.4223732e-01   1.0817784e-04
  3.4113523e-01   4.1916432e-05
  2.5718352e-02   4.5050771e-04
 -4.8362650e-02   2.7983345e-04
 -6.7617184e-01   3.7651337e-04
  7.7789956e-01   1.5645490e-05
  3.7561852e-02   8.9670066e-05
  1.9472033e-01   1.7611872e-04
 -3.5275170e-01   1.0228229e-04
 -3.0013511e-01   1.2499711e-04
 -2.4405964e-01   2.1346681e-05
 -1.0798179e+00   2.9904942e-04
  2.9180363e-01   1.1527887e-04
 -4.0844809e-02   3.6619836e-05
  2.1814976e-02   6.0032715e-05
 -5.0287765e-01   4.2085871e-05
 -3.9944812e-03   2.7676631e-04
  7.7774101e-01   6.3175845e-05
 -2.6494479e-01   1.8242579e-04
 -1.2470515e+00   2.1404318e-04
  3.1407946e-01   8.8590714e-05
 -4.7974211e-01   1.0624781e-04
 -4.4202673e-01   1.4150300e-04
 -4.7923037e-01   8.7418355e-04
 -7.5611070e-02   9.8457480e-05
 -7.4187733e-02   3.0262652e-04
 -2.8020030e-01   3.3078011e-04
 -1.6069101e-02   1.5784266e-04
 -1.8907539e-03   3.3817379e-04
  1.9628870e-01   2.7071437e-04
 -2.1833649e-01   7.1344990e-04
 -3.1353357e-01   4.5828533e-04
  1.6800244e-01   9.9297543e-04
 -3.6238068e-01   6.4067729e-04
  3.1272141e-04   2.1013949e-04
  2.4274745e-04   4.8367475e-04
  2.2332601e-03   3.7184946e-04
 -3.7986314e-04   2.7609174e-04
  4.8777502e-04   3.7612295e-04
  8.3717215e-04   8.1067823e-04
  5.8326754e-04   5.5216224e-04
  9.7644930e-05   2.3813623e-04
 -4.5438172e-04   4.9727486e-04
  2.6426831e-04   4.0078998e-04
  1.3060154e-02   8.8271954e-05
  1.2615507e-03   5.3101598e-04
  1.6880012e-03   3.1136771e-04
  2.5526430e-03   4.1213009e-04
 -2.6231918e-03   3.0997832e-04
  1.4585251e-04   2.1398948e-04
  8.3228847e-04   4.8334018e-04
 -3.1377564e-04   5.9261802e-04
 -4.4080397e-04   2.9407660e-04
 -1.3561117e-03   2.7456015e-04
 -1.5625275e-03   2.0174806e-04
 -7.8509987e-04   5.6126626e-04
 -2.2908312e-03   4.9333106e-04
 -3.7675390e-03   6.9948332e-04
  1.0487464e-03   2.5322547e-04
 -2.3295433e-04   4.2473810e-04
 -1.9762454e-04   5.0721772e-04
 -3.1231821e-03   2.1782563e-04
 -7.8809360e-04   2.7082500e-04
  1.6189944e-03   3.6816928e-04
 -3.1168212e-03   3.3787766e-04
 -2.4673913e-04   5.5115507e-04
 -2.8837690e-04   2.6703070e-04
 -4.3324614e-03   4.9600453e-04
  6.7583611e-04   1.7589355e-04
  3.8353962e-04   1.7382238e-04
  1.5046756e-04   4.7704962e-04
  6.8203131e-05   1.2942876e-04
  2.0119946e-03   5.6991290e-04
 -1.1811121e-03   7.1316020e-04
  8.0204313e-04   4.5694679e-04
 -4.7031828e-04   3.9521887e-04
 -1.0787572e-04   4.8223446e-04
  4.8486737e-04   3.0629773e-04
  9.2868315e-04   4.9525045e-04
 -6.8950735e-04   2.7603106e-04
  3.2265398e-03   5.3418934e-04
  3.4502600e-03   6.2654464e-05
  6.6087112e-02   1.7791815e-04
  8.0501917e-04   4.6779780e-04
  2.8142100e-03   5.6089548e-04
  1.4141820e-03   2.7930934e-04
  6.5109058e-04   5.0324592e-04
  4.7975784e-04   4.5369306e-04
 -1.6179937e-03   2.3789960e-04
 -1.0498884e-03   4.9402914e-04
  9.6276536e-04   3.3981280e-04
 -6.3911383e-04   3.3244232e-04
 -3.0012783e-03   8.0171769e-04
 -3.0709393e-03   4.2502375e-04
  5.2637667e-03   2.8140814e-04
 -6.9191251e-03   3.4982391e-04
 -1.5760250e-04   1.9342326e-04
 -9.0240923e-05   5.2458426e-04
  3.2386053e-03   4.8312603e-04
  2.6423493e-04   4.5137643e-04
 -2.0933859e-03   2.5004958e-04
 -8.7894360e-03   2.4702668e-04
 -1.4618383e-03   3.1067361e-04
  8.7370910e-03   1.5380599e-04
  1.4631519e-04   5.1209162e-04
 -3.0517334e-03   2.1203597e-04
 -2.3188931e-04   2.6327625e-04
 -1.4715510e-03   4.5184791e-04
  6.3458976e-04   7.7421661e-04
  7.8066997e-03   2.1056844e-04
  1.3112221e-03   2.9620787e-04
 -2.4364438e-04   4.2539346e-04
 -1.6297351e-03   2.8047783e-04
 -1.1943853e-03   2.0757373e-04
  1.4751460e-03   1.4327349e-04
 -8.3175994e-04   5.8514311e-04
 -8.6531852e-04   1.5630692e-04
 -4.2535400e-04   4.0786210e-04
 -1.8301087e-03   4.5089211e-04
  7.5072033e-04   5.2378199e-04
 -5.6413305e-04   5.9415092e-04
 -1.4148085e-05   3.7121482e-04
  5.6096005e-01   4.0370857e-04
  9.0124324e-02   2.8544094e-04
  2.0359801e-01   2.5796174e-04
 -2.0308956e-03   1.3401746e-04
 -9.2805809e-01   3.3019714e-05
 -8.5513020e-04   1.3556061e-04
  1.4634164e-01   4.3689124e-05
 -3.5979843e-01   1.3913364e-04
 -4.5773858e-01   1.4352633e-04
 -4.0924249e-04   7.1695526e-05
  5.5146450e-01   3.1474186e-04
 -5.8741923e-03   2.4676643e-04
 -1.3326050e-03   2.1179063e-04
 -3.3738273e-01   7.7419932e-04
 -9.4660781e-02   4.4473854e-04
  5.6410569e-01   4.0143891e-04
  9.8108342e-03   2.0546651e-04
  4.1052607e-01   1.6534855e-04
  6.0391957e-01   6.0488146e-05
  3.8360755e-03   1.2370435e-04
 -2.8476286e-01   2.3198083e-04
  3.0275041e-03   6.3310021e-05
  2.3460737e-01   1.5917524e-04
 -2.6800681e-02   1.2377505e-04
  1.8326892e-01   2.6130650e-04
  1.6662402e-01   8.4348590e-05
 -2.3492055e-03   3.9540458e-04
 -2.1300371e-01   6.7261251e-05
  6.6749034e-03   2.8632709e-04
  1.2896547e-01   1.2886887e-04
  1.5070329e-02   6.6466478e-04
 -6.5314278e-02   9.6371048e-05
  3.6389545e-01   2.1195188e-04
 -3.7637909e-03   5.4021348e-04
 -2.0007435e-02   2.6991832e-04
 -1.8388156e-03   2.8531661e-04
  9.7097330e-02   3.1213972e-04
 -3.7585138e-04   2.9984291e-04
  1.6116674e-04   2.8943724e-04
 -1.0040531e-01   4.7989574e-04
 -4.7554217e-02   3.0088853e-03
 -1.9976781e-01   1.1778282e-03
 -7.6006510e-04   1.8582464e-04
  9.2005376e-03   5.2825396e-04
  1.4884571e-04   3.2931438e-04
  4.2717336e-04   4.3348607e-04
 -2.0079238e-05   2.4036071e-04
 -1.4721008e-03   7.6624489e-04
  6.1567795e-01   1.2501699e-04
 -1.2960113e-02   2.5673574e-04
  2.9088612e-04   2.3710365e-04
  1.1047357e-04   2.5712719e-04
  3.9867379e-04   2.4384186e-04
  6.6720101e-04   6.6244527e-04
 -6.5412384e-04   5.7709793e-04
 -3.4195330e-04   3.9032273e-04
  2.2289704e-03   5.0287310e-04
  1.2888298e-03   6.5219007e-04
 -3.3000216e-04   1.3718799e-04
 -2.5128622e-03   1.9920841e-04
  7.6225954e-03   2.0133861e-04
 -5.1458878e-04   3.8249826e-04
  7.8122546e-03   2.1335404e-04
 -1.7453097e-03   5.7138468e-04
  4.4588288e-03   4.2321821e-04
  1.3424664e-04   1.9838641e-04
  3.7966985e-03   3.3408083e-04
  1.7011685e-03   5.7586178e-04
 -2.4253882e-03   9.3729199e-05
  3.7641794e-04   2.2591950e-04
 -2.1371290e-03   5.9082027e-04
 -4.4093636e-04   4.4611294e-04
 -8.1969186e-04   3.5164415e-04
 -2.3771236e-03   5.2876410e-04
 -1.8689479e-03   8.2809536e-04
  1.7713113e-03   5.0048775e-04
  7.0469927e-05   4.4885901e-04
  1.8398858e-03   7.7230402e-04
  1.1577319e-04   6.6428899e-04
 -2.8537121e-04   3.7377034e-04
 -1.6114829e-04   2.7757086e-04
  1.0274737e-03   4.3538166e-04
  1.9969228e-04   3.3963734e-04
  1.9156683e-04   5.9590337e-04
 -1.3173306e-03   3.2559625e-04
 -4.3046306e-04   2.4785896e-04
 -2.6095852e-03   2.9090312e-04
  2.0695569e-03   3.8402370e-04
  5.0725712e-04   5.1114295e-04
 -3.2776739e-03   4.3717347e-04
 -6.5721571e-04   2.2782589e-04
 -8.5956570e-05   3.7456211e-04
 -1.3167999e-03   1.3586618e-04
  4.9342518e-04   4.3568504e-04
  1.3623369e-03   5.2056013e-04
 -4.6230061e-04   7.1669841e-04
 -7.9885864e-04   1.6012340e-04
 -1.2601924e-03   3.2872331e-04
  9.3899760e-04   5.9861009e-04
  5.7883107e-04   2.0309373e-04
 -5.1402103e-04   3.7312874e-04
  2.1319147e-03   4.7920941e-04
  4.2963205e-04   6.3999812e-04
  8.5410202e-04   2.3519105e-04
 -3.1175630e-04   3.8840307e-04
  8.6993759e-04   4.0910830e-04
 -2.4182488e-04   5.5480760e-04
 -1.6700722e-03   7.3627179e-04
  2.4084698e-03   5.3303875e-04
  3.7646250e-04   3.4189635e-04
 -2.0369331e-04   1.5743215e-04
 -1.1089027e-04   3.8298461e-04
 -1.1355707e-03   4.9193774e-04
  9.2493289e-04   1.1691055e-04
  9.2138961e-04   4.9391348e-04
  3.7575178e-04   3.1771293e-04
 -1.1294077e-03   4.0514223e-04
 -1.6585946e-03   3.6936844e-04
 -3.1585038e-01   4.7556863e-05
 -6.4830686e-04   3.1044695e-04
 -3.2576153e-04   5.3566252e-04
  6.7458034e-04   5.4896373e-04
 -1.5457879e-03   5.3058116e-04
  5.2431715e-04   1.8921532e-04
 -2.9159028e-03   5.6181086e-04
  7.4333855e-04   3.5373124e-04
  1.9900298e-03   1.7996633e-04
 -1.0524361e-03   1.0424206e-04
  3.4512073e-04   1.8985763e-04
 -1.4391195e-03   4.1742128e-04
 -8.7994651e-04   5.0799281e-04
 -2.4270755e-04   6.0263620e-04
 -1.8503843e-03   3.6070650e-04
  5.9534702e-04   3.2748390e-04
 -3.1985683e-04   3.4005169e-04
 -3.5001995e-04   4.3966449e-04
 -1.8638007e-03   4.0180414e-04
 -5.7941977e-02   5.1740677e-05
 -1.6492885e-03   4.7520929e-04
 -4.6961076e-04   4.8768544e-04
 -4.0955594e-05   1.1071110e-04
  3.0102227e-03   2.2395486e-04
 -5.4345385e-04   2.1133904e-04
 -1.3188277e-03   3.5412688e-04
 -9.5188135e-04   2.8466526e-04
 -1.9063560e-03   2.6948989e-04
  5.4550263e-05   1.5387587e-04
 -3.4164827e-04   1.6710731e-04
 -1.2671485e-03   4.1000848e-04
 -3.2731812e-03   3.4864998e-04
  2.1950681e-04   3.4994658e-04
  7.1815186e-04   3.6806520e-04
  7.4473198e-04   3.3972869e-04
  8.3415862e-04   3.5200553e-04
 -5.8909232e-04   3.1071735e-04
  3.2504537e-04   1.8408307e-04
  1.3126530e-03   3.9564824e-04
 -1.0691131e-03   1.8390198e-04
  7.6208473e-04   6.4144266e-04
 -7.5147004e-04   2.0910430e-04
  1.3658067e-03   4.4454052e-04
 -1.8839418e-03   2.5541318e-04
 -8.0810027e-04   5.7563500e-04
  3.9560077e-04   1.3769674e-04
  1.0303512e-03   3.9341443e-04
  1.4732641e-03   3.2632399e-04
 -1.3667837e-03   1.2946296e-04
 -2.4369918e-03   3.2095303e-04
 -4.0412233e-05   5.3978083e-04
  1.6769168e-03   4.2029755e-04
 -2.6657314e-03   1.9884112e-04
 -1.3717819e-03   3.8881769e-04
  5.0037313e-04   3.0870119e-04
  3.3556271e-04   4.1544365e-04
 -1.4666238e-04   4.9441977e-04
 -3.4484954e-05   3.0745129e-04
  9.4963080e-04   5.9767172e-04
  1.1513121e-04   5.3668482e-04
 -1.5471505e-01   3.4927242e-04
  2.9249882e-02   2.5790243e-04
  4.4935611e-01   4.9042799e-05
 -5.6868058e-02   6.5090996e-04
 -1.8691386e-01   1.7457665e-04
 -3.7035668e-01   5.2707037e-05
  8.3021212e-01   3.9814689e-04
  8.3985440e-02   1.3869134e-03
 -3.2941535e-01   8.2769780e-04
  8.2165451e-04   5.4286036e-04
 -3.2083258e-02   8.1299600e-04
  4.2190738e-02   1.2276222e-03
  1.7641803e-02   4.6591426e-04
  3.6773160e-01   1.1646611e-03
 -4.3247771e-01   5.0849369e-04
 -8.0314800e-02   4.3638583e-04
 -1.7796774e-01   9.5376497e-05
 -6.5936749e-03   2.4626308e-04
 -2.4793874e-01   2.8543526e-04
  1.5175235e-01   2.9605060e-04
 -7.9211175e-05   1.7186107e-04
  2.1189077e+00   1.3161617e-05
  7.7164359e-02   4.5854982e-04
  3.5052758e-01   5.3285126e-04
  1.0192209e-01   5.1113399e-04
  1.9071728e-01   5.0579716e-04
  2.8023124e-03   6.2292611e-04
  1.2473365e-01   3.5304824e-04
  1.8869387e-03   7.1596156e-04
 -1.1495600e-03   4.5530748e-04
  3.1698565e-03   5.6760112e-04
 -3.1708909e-04   1.1785096e-04
  4.7543240e-01   6.7154778e-04
  5.2763084e-03   2.9917865e-04
 -6.8589434e-04   2.2353332e-04
  9.4759525e-05   2.5619272e-04
  1.2891525e-02   1.1830911e-03
 -3.8759798e-01   8.7458757e-04
  2.1748857e-03   9.7176555e-04
 -1.0631635e-03   4.3720839e-04
  6.3111656e-04   3.4888543e-04
 -7.1189401e-04   4.9505127e-04
 -6.6589779e-04   2.8431747e-04
  1.3149013e-04   3.3819201e-04
  1.3425399e-04   6.1896536e-04
 -1.3534016e-03   3.5295420e-04
 -5.3577048e-01   4.0058146e-04
  7.9767834e-03   1.4408614e-04
  3.6972301e-04   2.9132824e-04
 -4.4024200e-04   4.3602716e-04
  2.0172310e-04   2.6890228e-04
 -1.4634155e-03   2.8001529e-04
  2.1888588e-03   6.7601842e-04
  3.7669591e-04   6.1333214e-04
  9.7243385e-05   1.1931125e-04
 -1.5000321e-04   7.6435483e-04
  4.8599934e-05   6.4256374e-04
  3.2493280e-04   4.1898765e-04
 -8.2948554e-04   5.6825823e-04
 -1.3276142e-03   3.2445148e-04
 -7.6260522e-04   5.1882432e-04
 -4.2051295e-05   2.2181307e-04
 -5.3534238e-04   3.9166110e-04
 -2.3481394e-04   3.9514891e-04
  2.1117229e-03   4.9453432e-04
 -1.4078021e-03   4.0219244e-04
  4.0230359e-04   1.5478539e-04
  5.5627828e-03   6.8356033e-04
 -3.0620303e-04   4.1247843e-04
  5.9246446e-04   3.8849091e-04
  4.7966278e-06   7.0066395e-04
 -4.4827643e-03   3.2336192e-04
  3.4110405e-04   4.2963924e-04
 -3.3498947e-03   4.2869904e-04
  1.8314037e-03   4.6873267e-04
  4.4903890e-03   5.2028400e-04
 -1.1181690e-03   4.1707311e-04
  2.3903180e-04   1.4226837e-04
 -1.7005628e-03   1.8485214e-04
  6.0416052e-05   5.7333958e-04
 -1.7936608e-04   4.0033527e-04
 -1.2767475e-04   3.9588870e-04
  1.2282192e-03   4.3937299e-04
  2.0839702e-03   2.7187367e-04
  2.6530779e-03   4.7707895e-04
  1.1208023e-04   4.1012125e-04
  1.0887824e-04   4.5708215e-04
 -2.5459571e-04   4.2394729e-04
 -2.1530184e-05   6.7931961e-04
  1.3902984e-03   6.2264065e-04
 -1.8224173e-03   1.5581184e-04
 -1.5491638e-03   2.3711749e-04
 -5.4066442e-03   4.7322526e-04
 -1.6155060e-02   7.6308170e-05
 -3.0944357e-04   4.0470404e-04
  1.5120050e-03   9.4138429e-04
 -1.2694859e-03   2.9290459e-04
 -2.4461537e-03   4.7157679e-04
  5.2788923e-04   4.4786785e-04
  4.4020195e-04   3.5322158e-04
  9.6521311e-02   1.5793300e-04
  7.9098460e-04   1.4416511e-04
  1.5061459e-03   4.3286636e-04
  2.4004697e-03   3.6812638e-04
 -2.9637082e-04   2.0588961e-04
  1.8803548e-03   2.7204803e-04
 -4.4410280e-04   6.8290380e-04
 -3.8353080e-04   4.2341894e-04
  1.0396517e-04   1.1356774e-04
  1.5985081e-03   3.5643554e-04
 -1.7624187e-03   3.8839178e-04
  4.5345048e-04   1.6748694e-04
  1.7169831e-04   4.0925271e-04
 -3.1736819e-04   2.4809179e-04
  1.2753679e-03   5.8659440e-04
  6.5553794e-04   7.3877169e-04
 -7.8826759e-04   2.4605589e-04
  4.3434702e-04   7.9841365e-04
 -5.3323535e-03   1.1756864e-04
 -2.0113273e-04   3.5114671e-04
  2.9414410e-03   4.0394271e-04
 -1.4106880e-04   3.4130295e-04
 -9.1194081e-05   7.1938161e-04
  6.9491740e-04   3.1703713e-04
  2.9046962e-04   9.1918267e-04
 -3.0721072e-03   4.7999981e-04
 -1.9811450e-04   5.1798567e-04
  6.5872050e-04   2.9656125e-04
 -1.2426993e-03   2.6326164e-04
  3.0009646e-04   2.7356355e-04
 -5.8335444e-04   1.8802004e-04
  1.8630526e-03   6.4597779e-04
 -3.5289116e-04   4.7521031e-04
 -4.9450406e-04   1.7795418e-04
 -1.7050073e-02   1.1311029e-04
 -1.4703758e-03   3.3110971e-04
 -1.2094926e-02   3.3684485e-04
 -5.0557079e-03   2.9555461e-04
  1.1927445e-02   2.7158318e-04
  9.0620210e-03   4.3357018e-04
  7.1353554e-03   4.3632960e-04
 -1.3151646e-03   3.7374106e-04
 -7.8033787e-05   4.7069110e-04
  2.5916749e-03   3.6380865e-04
  1.5232566e-02   5.8997929e-04
 -1.0311315e-03   6.4295810e-04
  6.6869933e-04   2.6877320e-04
  9.5642274e-03   3.6797539e-04
 -3.0030918e-03   2.6589824e-04
  2.9348797e-04   2.1647605e-04
  1.5715264e-03   3.0169531e-04
  8.0945138e-03   4.0145579e-04
  4.1763613e-04   5.0029403e-04
 -3.8138477e-04   2.7020567e-04
  4.6309843e-04   4.6198833e-04
 -1.2311296e-02   9.7350603e-05
 -1.0872310e-03   3.2428591e-04
  8.1023603e-04   8.7277462e-05
  4.8141540e-03   3.4935310e-04
  2.6371016e-04   2.6480519e-04
 -7.8848173e-04   3.3121346e-04
 -2.5765502e-04   2.0974295e-04
  3.1789960e-03   9.7358949e-05
  1.6998230e-03   1.2188139e-04
  1.1593311e-03   1.6687911e-04
  1.4136678e-03   4.4201230e-04
  1.2725308e-03   4.6003898e-04
 -3.6989895e-03   2.7953452e-04
 -1.3269414e-03   3.8251802e-04
  4.5338087e-04   6.5580738e-05
  1.5065229e-03   3.5833591e-04
  5.2967254e-04   2.3389109e-04
 -7.6632266e-04   1.6290405e-04
  7.5625838e-04   4.7937201e-04
 -1.5661316e-01   5.9887476e-04
 -1.1414081e+00   2.0876550e-04
 -7.4879885e-01   3.8340141e-04
  5.4898731e-02   6.5112067e-04
 -4.0560940e-01   3.0199446e-05
 -4.5237464e-01   3.5243877e-04
 -6.0812145e-02   5.3920015e-04
  6.6947323e-01   4.6033517e-04
  3.1377861e-01   2.1041639e-04
  2.6071209e-01   7.1484048e-04
  1.2417125e-02   5.5459066e-04
  4.8290901e-03   3.8718380e-04
  3.7416369e-03   1.1798218e-04
  7.6271915e-03   2.7965565e-04
  3.6602542e-01   6.3555886e-04
  2.0981425e-01   5.6566042e-04
 -7.5181776e-01   2.2097539e-04
  1.0289545e-03   1.1388389e-04
  1.2426478e-01   2.0043892e-04
 -1.5572753e-03   2.1881802e-04
 -1.8421319e-01   3.3346357e-04
  5.1092535e-01   2.8749311e-04
  2.3697129e-02   3.4195953e-04
 -2.0416330e-01   5.3997431e-04
  3.0320749e-02   3.5352021e-04
 -1.3328372e+00   1.2736022e-04
  8.9409342e-03   2.0790615e-04
 -1.0226437e-01   4.6656781e-04
  1.9829401e-01   2.8922982e-04
 -1.8529096e-01   3.3022507e-04
 -1.7187789e-03   4.8366722e-04
 -9.2192669e-04   3.4009863e-04
 -4.0185028e-01   3.2324961e-04
  8.0943224e-05   5.6279264e-04
  7.8784890e-02   2.5197834e-04
  3.8154680e-01   8.1661601e-05
 -3.1117868e-04   2.8269237e-04
 -2.3317316e-05   2.7509409e-04
  5.0867203e-04   4.7456397e-04
 -9.1437396e-06   2.6118173e-04
  5.1732142e-03   1.3095303e-04
  8.1826533e-05   4.3046119e-04
 -4.4703432e-03   5.8812671e-04
 -7.0145604e-04   2.9099436e-04
  5.1280342e-02   2.0938036e-04
 -1.6922206e-02   3.2865303e-04
 -1.8642100e-03   2.3633416e-04
  1.1112792e-02   3.0344340e-04
  1.5392144e-01   5.6131488e-05
  3.3581026e-03   2.1808708e-04
  1.1310682e-01   1.0464143e-04
  8.7404542e-04   2.5157657e-04
 -1.6764510e-02   2.8356406e-04
 -9.6873753e-02   7.5191958e-04
 -3.7289257e-03   4.5443189e-04
  3.2411685e-04   3.7280173e-05
 -2.9117000e-06   3.3672623e-04
 -4.1296175e-03   1.5467410e-04
 -1.1152539e-01   3.6411668e-04
 -3.8560953e-03   3.2570184e-04
  6.3375593e-03   1.4118236e-04
 -2.4465623e-03   1.7561672e-04
  1.6458503e-03   1.1772544e-04
 -1.0137598e-02   8.4081158e-04
 -2.7930699e-04   1.9103564e-04
 -1.5050828e-01   2.4226868e-04
  4.2368571e-04   9.2032504e-05
 -9.4473884e-02   1.6423591e-04
 -6.7777844e-04   6.4396532e-05
  5.9663180e-02   1.2327134e-04
 -1.5883313e-03   4.0134171e-04
  7.5515434e-03   1.3316267e-04
 -3.9120175e-02   4.3642498e-04
 -2.2115076e-03   2.0567057e-04
  1.9527774e-02   1.3942237e-04
 -2.5396663e-05   3.6020018e-04
  1.6104881e-01   1.6433002e-04
 -3.9659888e-03   1.1221776e-03
 -3.6869936e-03   3.7385596e-04
 -8.0828398e-04   3.0917043e-04
  1.1888588e-03   4.0569392e-04
  6.0258398e-04   2.4834255e-04
 -5.6955148e-05   5.6186528e-04
 -2.8641429e-04   2.7565262e-04
 -1.2056499e-03   8.4269320e-04
  6.4275280e-04   3.2733710e-04
  2.6709533e-03   4.3411713e-04
 -8.5970270e-04   3.6271536e-04
  5.1618769e-04   3.1547222e-04
  4.6598655e-04   3.6606551e-04
 -9.5010555e-04   8.5251639e-05
  1.0727150e-03   3.4537973e-04
 -5.1105855e-04   2.4553010e-04
 -1.4211641e-03   1.7671248e-04
  2.7659922e-04   7.4213539e-04
 -1.4552653e-03   3.4117643e-04
 -1.3290045e-03   5.8864424e-04
  6.4398948e-04   2.2407676e-04
  4.4314453e-04   3.2328969e-04
 -9.2273281e-04   3.3726078e-04
 -2.3104629e-04   2.9197091e-04
 -1.4531180e-03   8.2560512e-04
  1.5100520e-03   5.0482806e-04
  2.8989716e-03   1.3587002e-04
 -3.9064744e-03   5.1378272e-04
 -3.3996503e-03   4.3251572e-04
 -8.9500437e-04   4.1337174e-04
 -2.5219924e-06   4.9126858e-04
 -5.4487993e-04   4.1470089e-04
  1.9469527e-04   5.6507543e-04
  7.2421157e-05   2.2907030e-04
 -1.9407876e-04   5.0306902e-04
 -1.4168479e-03   7.5715786e-04
 -1.1194941e-04   4.3678281e-04
  4.7570543e-04   3.3927182e-04
 -2.6833769e-03   1.8397465e-04
  8.2275583e-05   3.6232217e-04
 -9.6446835e-04   4.6735813e-04
 -6.9754268e-04   4.6054891e-04
  2.7680558e-03   1.6114139e-04
 -1.2397741e-04   3.5538804e-04
 -5.4512178e-03   1.5992041e-04
  5.1620411e-04   5.3042703e-04
  3.0816486e-04   2.9811004e-04
 -2.6925821e-03   3.6145386e-04
  3.8307538e-04   4.4984440e-04
 -1.0063380e-03   2.5576778e-04
  2.8633451e-04   2.0019489e-04
 -1.5692184e-04   4.6979633e-04
  1.0804731e-03   4.0313741e-04
 -1.5437973e-04   5.7725917e-04
  2.7661710e-03   4.5148373e-04
  2.2451804e-04   3.4074602e-04
 -2.3703130e-01   1.7356801e-05
  4.5850986e-04   1.5011281e-04
 -1.7626821e-04   4.6392423e-04
  7.6032120e-01   1.2239993e-04
 -1.1107431e-03   1.2647081e-04
 -2.1601932e-03   3.1874329e-04
 -5.4125499e-04   7.7634281e-04
 -6.3310588e-05   3.6238012e-04
  2.0339699e-03   5.2099820e-04
  1.7337031e-04   7.1019627e-04
  9.4009476e-04   4.9762538e-04
 -1.6394637e-03   7.9229759e-04
 -1.1380918e-03   1.8447758e-04
  1.3582739e-03   2.0369528e-04
 -1.5063682e-03   1.2842604e-04
 -1.0584936e-03   3.2467692e-04
 -4.6003421e-04   3.1354310e-04
  3.1721796e-04   4.5436874e-04
 -1.1011341e-04   2.6136625e-04
  5.7246414e-04   3.0725828e-04
  8.7219296e-04   4.5096845e-04
  2.8502062e-04   2.9488275e-04
 -1.0133891e-03   1.6984956e-04
  5.0509778e-05   1.7363467e-04
 -1.5888668e-03   2.8802591e-04
 -3.8625198e-04   4.8923976e-04
 -2.2716107e-04   1.4545195e-04
  1.7461833e-03   5.8411981e-04
 -8.8919667e-05   6.2347658e-04
  5.1214309e-05   6.6945946e-04
  1.4522446e-04   4.1711712e-04
  8.8998186e-04   3.7080908e-04
  7.6987833e-04   4.3066076e-04
 -1.2188130e-03   6.1425025e-04
 -4.1723843e-03   2.3410196e-04
  8.2050683e-04   4.6178809e-04
 -9.4748777e-04   7.8306295e-04
 -7.2406401e-05   3.9472603e-04
 -8.2256267e-04   1.4184797e-04
  3.9504157e-04   2.3597284e-04
  1.6223399e-03   3.2007814e-04
  5.9436966e-04   2.3009964e-04
  1.0060098e-04   3.6128802e-04
  8.8532979e-05   3.4366804e-04
 -4.4548884e-04   5.9912872e-04
  1.5427879e-03   5.6694256e-04
  4.4008301e-04   2.1683704e-04
  1.5048794e+00   1.7980231e-04
 -1.2124843e-02   5.7146070e-04
 -1.7778511e-04   2.5508206e-04
  4.0397429e-04   4.2149416e-04
 -9.9492655e-04   2.8767271e-04
 -6.1979285e-04   3.3282337e-04
 -4.3250117e-03   3.6504903e-04
  2.0991908e-03   3.7532792e-04
 -1.0973592e-03   3.3830220e-04
 -3.5271992e-04   6.0888845e-04
  7.2683493e-04   5.1151309e-04
 -2.9877451e-04   1.9210341e-04
  2.4139183e-03   2.2052568e-04
 -1.1743198e-03   3.4676757e-04
  4.5117963e-04   1.8617848e-04
  1.8809519e-03   5.3484063e-04
  5.1782280e-03   3.4004785e-04
  6.1949155e-05   4.1069032e-04
 -4.1419553e-04   5.9239927e-04
  1.3649364e-03   2.5556391e-04
 -3.2774304e-04   3.7948866e-04
  1.1835789e-04   1.8261767e-04
  1.8853750e-03   3.3682212e-04
 -4.2874255e-04   5.4334465e-04
  2.9603161e-03   4.6575893e-04
 -2.4409503e-04   2.5630911e-04
  5.3983665e-04   4.7410157e-04
 -1.0394936e-03   6.9934264e-04
  1.6735519e-03   5.1472994e-04
  8.5966736e-02   8.0963876e-04
  3.4034351e-04   4.6893244e-04
  1.0393019e-04   2.6308771e-04
 -2.1891147e-03   6.4115989e-04
  9.2892529e-05   4.0431949e-04
 -5.3561297e-03   6.9460255e-04
 -1.6149151e-03   1.5463562e-04
  7.5147269e-05   6.7821878e-04
  1.2828639e-03   1.6650063e-04
 -1.5813988e-03   4.2735820e-04
  1.0727347e-03   4.7739939e-04
 -1.3995055e-03   2.1825133e-04
 -1.0221049e-03   7.4626954e-04
  4.5820756e-04   1.3964961e-04
  7.7486126e-04   2.9373745e-04
 -6.7399506e-04   2.4708841e-04
  4.4917356e-04   3.9974609e-04
  2.0521083e-03   2.9834465e-04
 -1.6726943e-04   3.4536744e-04
 -1.6492049e-04   2.0043095e-04
 -2.2027025e-03   7.3259114e-04
 -7.2608632e-04   4.9920724e-04
 -6.2348256e-05   4.1852886e-04
  3.7754443e-03   6.9096481e-04
  7.5866287e-03   5.3658505e-04
  2.7556471e-03   3.3127790e-04
  2.1378277e-03   3.7413629e-04
 -1.9620993e-04   3.5181266e-04
 -6.0665311e-04   5.5905525e-04
 -5.0859657e-05   6.4165331e-04
  3.8159805e-04   7.8720978e-04
 -1.0685588e-03   4.4590922e-04
  4.3996159e-05   2.8077568e-04
 -8.7617300e-05   5.7263335e-04
  2.0069245e-04   3.6032265e-04
  5.3756119e-04   3.6402873e-04
  1.3327242e-03   1.3643743e-04
 -9.2130160e-04   2.5412184e-04
  8.9166060e-05   2.8078002e-04
  2.0561090e-03   6.3257152e-04
  1.0929867e-03   4.0423620e-04
  8.1291550e-04   3.7822826e-04
  6.0013833e-04   5.2466325e-04
 -1.0280905e-03   8.8185497e-04
 -1.0011116e-03   5.4871192e-04
 -1.2531980e-03   5.2101945e-04
  5.3082651e-04   2.5392597e-04
  1.0738267e-03   6.6568493e-04
 -2.7494979e-04   5.4416852e-04
 -4.3035217e-04   1.0320861e-04
  1.7809602e-03   4.6873878e-04
 -1.3176068e-03   5.6784728e-04
  9.5735805e-04   7.5260340e-04
 -1.6047319e-03   4.3156766e-04
 -1.8500304e-03   4.7921916e-04
 -1.3842834e-03   5.1848241e-04
  1.8535898e-04   3.4049497e-04
 -1.7497833e-03   3.5029318e-04
  2.7795625e-03   3.8018907e-04
 -6.1393101e-02   1.2181402e-04
 -2.8846494e-04   2.8556661e-04
 -1.0501093e-03   2.6520406e-04
  3.2578304e-04   1.0879128e-04
  5.8227205e-03   3.8912473e-04
  1.0777836e-03   6.5104681e-04
  1.0776798e-03   4.4707931e-04
 -2.3440225e-04   6.2887656e-04
 -1.8188117e-04   3.2320726e-04
 -9.9591410e-04   2.1235575e-04
  1.4117912e-03   2.8016022e-04
 -5.7978375e-04   2.5548393e-04
  2.1575976e-03   5.2981346e-04
 -1.8397090e-04   4.0602474e-04
  2.1475377e-04   1.8799298e-04
 -9.7874901e-04   3.1311810e-04
 -4.5080975e-05   3.8950812e-04
  5.4275040e-03   6.3299120e-04
 -1.5113609e-03   3.6664214e-04
 -1.2744924e-03   2.4110846e-04
  2.1077991e-03   5.9300172e-04
 -4.7738985e-03   4.6126213e-04
  1.1751176e-03   6.1889057e-04
  6.4542601e-03   9.0203095e-05
  1.1952915e-03   5.7843124e-04
  2.2726192e-03   4.3704972e-04
 -1.5165798e-03   3.6446078e-04
 -9.9587347e-04   2.9151572e-04
 -1.0222882e-03   1.6355018e-04
  3.3407778e-05   3.6641519e-04
  1.2859906e-03   1.5491241e-04
  2.6778079e-04   3.3227695e-04
 -1.4457100e-03   5.7101785e-04
 -9.8026387e-05   3.5126417e-04
  1.2507566e-03   6.9409073e-04
 -2.3508146e-03   5.8191799e-04
  5.8650429e-04   7.4845389e-04
  8.3612819e-04   4.5867346e-04
 -5.3097401e-04   5.3627370e-04
  3.3533553e-04   4.3225649e-04
  1.0586400e-03   6.7262346e-04
 -4.4472452e-04   2.8030740e-04
  6.5626681e-04   2.7174875e-04
 -2.2071004e-03   1.8244848e-04
  2.4120446e-02   3.1892693e-04
 -5.1413721e-04   9.4312854e-05
 -1.5149399e-03   4.8316841e-04
 -1.9272488e-03   3.7534119e-04
  2.8614001e-04   4.5977673e-04
  2.7551528e-03   2.9431752e-04
  3.5809173e-04   3.8390601e-04
  1.4405565e-03   3.2961002e-04
 -5.5064331e-04   2.8403409e-04