  9.7126670e-02   1.7139179e-04
 -3.7014086e-03   1.8172620e-03
  7.4764844e-03   9.4431260e-04
  2.1752387e-03   5.4230285e-04
 -2.6749140e-03   7.0891960e-04
 -5.3755865e-03   1.0152922e-03
 -1.9930761e-02   1.2543836e-03
  4.3946919e-03   1.3547706e-03
  4.0966549e-04   7.2972121e-04
 -5.2241934e-03   1.6254657e-03
  1.4777646e-03   7.0024148e-04
 -6.0363202e-03   1.9430636e-03
 -2.8972272e-03   1.1170078e-03
  4.1233692e-03   8.6672464e-04
 -2.2806083e-03   1.6572006e-03
  1.5337076e-03   1.0800770e-03
  9.0430668e-03   1.5199585e-03
  2.5512630e-03   8.8719209e-04
  6.6044359e-03   2.6079803e-03
  2.1392383e-02   1.8665340e-03
 -1.4157266e-03   1.4944399e-03
 -6.0923882e-03   1.2836526e-03
 -1.7695061e-03   1.5364804e-03
  1.1280457e-02   6.9281022e-04
  2.0819732e-03   1.7861868e-03
 -1.4560843e-03   4.4005804e-04
  6.6364384e-03   8.6090917e-04
  2.1592360e-03   9.8047883e-04
 -7.5540695e-05   1.0763281e-03
  2.3620817e-04   6.8795827e-04
 -1.8810621e-05   1.2161077e-03
  3.5796361e-03   1.2031611e-03
 -1.5656743e-03   1.3293059e-03
 -1.3320900e-03   2.0865118e-03
  2.3196649e-03   2.5689092e-03
 -5.2532204e-03   1.2400544e-03
  3.7248048e-04   1.8471692e-03
  6.0021551e-03   1.0208915e-03
  6.2826253e-03   1.4245051e-03
 -2.6199406e-03   1.6856841e-03
 -1.5166218e-02   8.2280120e-04
 -6.2224100e-04   2.7911672e-03
 -3.4619656e-03   6.4741407e-04
 -1.4841240e-03   1.2647576e-03
 -1.2989825e-02   1.2727159e-03
  2.0415443e-03   7.0518593e-04
 -5.9069754e-03   1.3688278e-03
  1.9994460e-03   1.3277014e-03
  2.9384208e-04   5.4613804e-04
  6.7116256e-04   1.1502071e-03
 -8.3215656e-03   1.2052723e-03
 -1.7634735e-03   9.8078500e-04
  1.8154047e-02   7.1335671e-04
  5.6355475e-03   1.9781757e-03
 -4.2130309e-04   1.0581367e-03
 -6.1422181e-03   8.9254719e-04
  2.1139188e-03   1.5015113e-03
 -4.6010027e-03   5.0399400e-04
 -3.8363819e-04   1.5040538e-03
 -3.0219019e-03   1.8306774e-03
  2.0703023e-04   5.3726265e-04
  1.1557059e-02   1.6228945e-03
  1.6544486e-03   1.3942696e-03
 -1.6119380e-03   1.0239024e-03
 -6.5285182e-03   7.0746813e-04
  5.4695210e-03   6.8699883e-04
  7.3658193e-06   8.3734927e-04
  5.4421830e-03   1.5676564e-03
  9.6556655e-04   4.2260828e-04
 -1.4438758e-03   1.0085532e-03
 -1.4310799e-03   1.0451967e-03
  3.0569665e-03   8.6326950e-04
  2.2230675e-02   1.8642460e-04
 -4.1582971e-03   1.4172610e-03
  2.7191902e-03   1.9854407e-03
 -5.5104727e-03   1.4034852e-03
 -2.6588668e-03   7.7148544e-04
  5.8615920e-03   3.4927420e-04
  8.5347734e-04   7.9590379e-04
 -4.0131072e-03   1.1172361e-03
 -2.3564047e-03   2.0628239e-03
  6.0827672e-03   7.8494911e-04
  5.7290471e-03   2.6838004e-03
 -1.0595328e-01   3.5315825e-04
  6.2887510e-03   1.8246176e-03
  1.6690405e-03   6.4588129e-04
  7.7530404e-04   1.0013820e-03
 -5.4508680e-03   3.1320520e-03
  3.9286971e-01   1.1231154e-04
  7.5801259e-01   2.3013605e-04
  2.7060518e-01   3.6216581e-05
  1.2490189e-01   5.9306083e-05
  3.2934386e-03   5.9897269e-05
 -1.0793345e+00   1.3557130e-05
  4.1458389e-01   5.5902427e-05
  4.9142519e-01   4.9192883e-04
 -1.0172853e+00   1.7237767e-04
  6.0276854e-01   8.8080240e-04
  3.1219143e-01   8.0723019e-04
 -4.1503146e-02   8.9810760e-04
 -5.6802545e-02   7.5639357e-05
 -3.6839156e-03   1.3250087e-03
  2.1452112e-03   7.3732680e-04
  1.2625772e+00   6.9012822e-05
  1.1001328e-01   3.7949765e-04
  8.1546254e-02   1.7351589e-04
  8.3991116e-01   9.4199320e-05
 -3.1094393e-02   1.6053002e-04
  5.6742644e-01   4.9351424e-04
  1.1174453e-03   1.9576360e-04
  6.9550562e-01   2.2690122e-04
 -3.6910239e-01   1.5210225e-04
  8.8141257e-01   1.1167694e-03
 -4.4199862e-03   1.0127167e-04
  1.1854896e-01   7.7314973e-05
  3.8581505e-01   6.7133842e-05
  6.0705805e-01   1.2239990e-04
 -3.0377842e-02   8.9099383e-05
 -7.3079164e-03   5.6511571e-04
  2.7780674e+00   5.4570317e-04
  1.5799347e-02   3.9837905e-04
 -1.2643425e-01   5.6310976e-04
 -3.6634219e-01   8.5251540e-04
  5.4660983e-02   8.8953902e-04
  5.1946014e-02   1.3161283e-03
 -2.3220575e-01   3.9740666e-04
  4.1578477e-04   1.2513705e-03
 -1.8956168e-03   2.5667486e-04
 -1.1804760e-01   8.2180247e-04
 -3.6423993e-01   8.5240310e-05
  3.5626459e-01   5.1975035e-04
 -1.0601752e-02   9.3159080e-04
  3.2888082e-01   2.5585122e-04
 -9.5848113e-02   1.4163616e-04
 -6.9805843e-01   3.0166734e-04
 -4.5010826e-01   6.4484593e-05
  3.6142391e-01   2.4869822e-05
  8.9359820e-02   1.0654970e-04
 -9.5809966e-01   6.2934210e-05
 -5.1767099e-01   3.3649339e-04
  8.9275156e-04   6.8276958e-04
 -1.2869482e-01   1.7554793e-03
  8.0337543e-03   5.9978833e-04
 -5.6002673e-02   2.1070690e-04
 -4.1954864e-02   4.8022004e-04
 -1.1265314e-02   1.1346383e-04
  4.8168097e-03   7.3204306e-04
  3.7903686e-03   1.2992232e-03
  4.1261721e-02   3.5669236e-04
 -1.8663899e-03   9.9776569e-04
  5.1988102e-03   2.1274528e-04
  1.7697943e-02   6.6603953e-04
  1.9608907e-01   7.2200852e-04
  7.6997159e-03   7.9950684e-04
  1.9681033e-01   1.9423709e-04
  1.6416936e-01   4.3370310e-04
 -8.2616508e-04   7.7314430e-04
  1.1227107e-02   3.0963184e-04
 -1.0887637e-01   3.6537251e-04
  5.6872558e-02   1.6596857e-04
  5.6904010e-03   2.6174911e-04
 -6.5455143e-03   5.6340051e-04
 -4.1071726e-03   1.1793511e-03
 -1.1226555e-02   6.8568514e-04
  1.0688890e-01   8.3040318e-04
  1.6117334e-01   2.5716709e-04
  7.1008125e-04   1.2148641e-03
  1.3028980e-02   1.0091639e-03
 -1.5219761e-04   1.7416693e-03
 -3.8981289e-03   1.5245979e-03
 -4.7391076e-03   9.1263838e-04
  6.2151924e-03   1.4066602e-03
  5.0413754e-04   7.3272514e-04
 -6.8538743e-03   7.2687125e-04
 -1.2423253e-02   1.1535324e-03
 -5.8817766e-03   1.0763016e-03
 -2.2644690e-01   6.2839790e-05
 -2.0416924e-01   5.8549987e-05
  3.9856911e-01   6.2976505e-05
  2.3428812e+00   9.0516194e-05
 -1.1465348e-01   3.4661098e-05
 -1.1219567e+00   2.3987681e-05
  3.3662739e-01   5.6702516e-05
  2.2489280e-03   8.7008753e-04
  8.9121175e-01   4.1788514e-04
 -1.0097835e+00   1.2051720e-03
  4.0976442e-03   1.1137755e-03
  2.2707620e-01   4.3677565e-04
  1.2322888e+00   1.0498172e-03
 -2.6420617e-01   4.4802972e-03
  5.7616252e-01   2.6286161e-03
  5.9608883e-01   6.9717190e-04
  1.3626676e+00   4.7391956e-04
 -1.2746510e-01   5.8732968e-04
  5.3890109e-01   1.3532609e-04
  2.3045005e-01   4.2269556e-04
 -3.0054200e-01   1.0002867e-03
  2.2745368e-01   6.5299904e-04
 -2.4521869e-02   6.7717046e-04
  7.9434657e-01   2.8578901e-05
 -2.2617337e-01   6.3979131e-04
  8.5114563e-01   2.3264240e-04
 -5.7926409e-02   1.3651774e-04
 -1.9490356e+00   4.7183636e-05
  7.0542055e-01   7.7288348e-04
  6.8657935e-02   1.7010361e-03
  1.1309896e-01   5.1066943e-04
  2.6657695e-02   1.2873263e-04
  1.2440498e-03   4.9569929e-04
  1.8543617e-01   1.7573044e-04
  2.4556477e-02   5.5971555e-04
  2.7001175e-01   1.0332434e-03
  1.8344377e-01   1.5802726e-03
  2.5330510e-03   1.3757787e-03
  9.8235225e-03   1.9451820e-03
 -3.0534652e-01   1.0938764e-03
 -1.0092292e-05   2.9486427e-04
 -1.1641567e-02   1.0223701e-03
 -1.7085152e-03   1.6314836e-03
  1.6480830e-04   1.1212913e-03
  3.4403880e-03   7.7978405e-04
  1.0088335e-01   2.6348646e-04
 -1.2097175e-01   2.4377568e-04
 -9.6354568e-03   1.5508210e-04
 -1.2219578e-02   7.9983048e-04
 -2.1511011e-01   5.2396852e-05
  3.9586410e-01   3.7540527e-04
  1.6254414e-03   7.5475924e-04
  1.0884086e-02   4.5364173e-04
 -1.0307453e-02   1.9038138e-03
  3.8632990e-03   1.8661480e-03
 -3.9193674e-04   6.6917011e-04
 -1.2641888e-03   7.0448493e-04
  6.4694311e-04   9.7303372e-04
 -2.4433096e-03   6.3259306e-04
 -2.1162881e-03   8.6320523e-04
  4.1496716e-03   4.1361674e-04
 -1.1212206e-02   2.0779986e-03
 -1.4768629e-02   3.1660896e-04
 -2.4514087e-04   4.5504011e-04
  3.0098523e-03   8.8656263e-04
  6.4164298e-03   1.0009530e-03
 -5.6350185e-04   1.0302565e-03
  5.2527054e-03   2.3930358e-04
 -1.2178583e-02   1.7941144e-04
  2.8548194e-03   4.7054674e-04
  1.8781136e-03   8.6775434e-04
  2.3134123e-04   4.9318065e-04
  3.1076694e-02   2.7148731e-04
 -5.8582320e-04   7.7892788e-04
  1.7364819e-03   4.3509455e-04
 -7.6552657e-03   4.6252046e-04
 -3.5533292e-04   2.4007534e-04
  1.2452114e-02   8.1693713e-04
  1.7941776e-03   8.9582294e-04
  4.9072325e-05   2.2009658e-03
  6.0450039e-03   1.1468226e-03
  5.8305664e-03   1.3196708e-03
  2.6653837e-03   1.3787705e-03
  7.9854382e-03   7.6649425e-04
  7.9641090e-04   8.6618873e-04
  5.1038434e-05   6.9726235e-04
 -1.2441878e-03   1.5364995e-03
  7.9912925e-03   1.0750521e-03
 -8.9184630e-01   1.0298132e-04
  5.9935111e-01   4.3608252e-05
  6.1806053e-01   1.3966768e-04
  5.1999682e-01   6.5817585e-05
 -2.0753761e-01   1.3005409e-04
 -9.2877078e-01   1.9853046e-04
 -4.1551286e-01   5.9019698e-05
  8.7812334e-02   6.9706491e-04
 -8.7847501e-01   1.6262459e-04
  1.1825670e+00   4.1678071e-04
  1.5325380e-02   3.0744253e-04
 -9.5698923e-01   8.1849826e-04
  3.7163273e-01   4.2448929e-04
 -2.2669770e-03   1.3960642e-03
 -3.1462755e-02   7.5809174e-04
  3.0453900e-02   1.5409027e-04
  2.6785724e-03   4.7203293e-04
  9.0646136e-01   1.9628377e-04
 -4.5541945e-01   1.8702768e-04
 -6.7587984e-01   2.3285949e-04
  1.0627857e+00   1.5617249e-04
  6.3689947e-02   6.8047077e-05
 -1.3329402e-01   4.6278205e-04
 -8.4090781e-01   1.4755799e-04
  3.8415846e-01   5.6477840e-04
  9.5978326e-01   8.2628401e-05
 -1.0616955e+00   1.8247949e-04
  9.6349537e-02   1.2257468e-04
 -3.5467765e-01   4.7713722e-04
  1.2149966e+00   4.7235974e-04
 -9.8244095e-01   9.3114475e-04
  1.1008731e-01   4.7575618e-04
 -1.3617281e-03   5.1589619e-04
 -1.4922599e-02   6.1399298e-04
  5.9619498e-01   3.1472699e-04
 -1.1531561e-02   2.9244283e-04
  1.3188866e-02   6.7743257e-04
  8.2040811e-04   9.2293479e-04
  7.9537008e-04   7.1694399e-04
  1.3470216e-02   6.9587649e-04
 -3.3190046e-02   2.6181390e-04
 -1.3837148e-03   1.0741744e-03
  6.4204454e-02   1.7022025e-03
 -5.9458888e-03   2.4323137e-03
  5.3564042e-01   2.1109353e-04
 -1.4247644e+00   1.3479759e-04
 -1.0989203e-01   1.6345349e-04
  9.0103531e-01   2.0297487e-04
 -9.5446932e-01   1.3828144e-04
  1.1656530e+00   7.8098921e-05
  5.5007972e-02   1.4956703e-04
 -1.4798023e-01   5.4058828e-04
  3.9608918e-02   5.3928525e-04
 -5.1011927e-03   9.3485904e-04
 -9.1348065e-04   7.1981229e-04
  4.8253223e-02   1.5891888e-03
 -7.5606015e-03   4.4156983e-04
 -3.4950955e-03   1.0365064e-03
  9.7370776e-04   9.2043082e-04
 -8.9954779e-02   1.4319513e-03
 -3.2457104e-01   7.5919561e-05
 -1.3101018e-03   3.0692751e-04
 -7.9616970e-01   4.7898997e-04
  2.2487598e-03   3.3952502e-04
 -5.6047235e-03   6.3937000e-04
 -1.2045896e-01   5.2387873e-04
 -3.5708204e-02   1.2290332e-03
  1.0466200e-01   7.2143786e-04
 -4.7814548e-02   3.3905153e-04
  5.3876429e-03   5.4830214e-04
 -1.9785920e-01   1.2950253e-05
  4.0765014e-04   4.7937664e-04
 -5.5752794e-04   1.2600352e-04
 -1.0399182e-02   3.1351604e-04
 -2.3181410e-01   4.9941009e-04
 -3.9991615e-03   1.0756917e-03
  3.4432458e-03   4.0838018e-04
 -1.0043659e-03   3.8131382e-04
 -3.0979913e-01   4.9187982e-04
 -2.2048684e-02   1.9485065e-03
 -7.5251989e-02   4.7517777e-04
  8.0511950e-02   2.5487633e-03
  1.8206834e-04   3.4611061e-04
  2.4031356e-01   8.4086676e-04
  1.1581592e-02   2.0352982e-03
  2.4161790e-03   2.6626470e-03
 -1.1208420e-01   1.0336447e-03
 -1.5161436e-03   1.2508030e-03
 -1.7872252e-02   2.4604544e-04
  6.5281636e-01   4.0355304e-04
  3.0677868e-02   1.5288063e-04
  8.0142087e-01   5.3009826e-05
  2.4668328e-01   8.6469568e-05
 -1.7768335e-02   9.7663018e-05
 -3.1165699e-02   8.8735433e-05
  9.2756171e-03   1.2201868e-03
 -4.5140078e-03   1.3361464e-04
 -1.0268643e-03   1.0147445e-03
 -1.9869810e-02   8.3406805e-04
  7.6349606e-06   1.0045870e-03
 -6.2559028e-03   6.5258803e-04
  5.8160053e-04   1.4964911e-03
 -2.9572244e-03   9.7950408e-04
 -4.9152732e-02   1.4023080e-03
 -1.0518678e-02   2.5693205e-04
 -7.0899562e-04   4.8484327e-04
 -5.3259838e-02   8.5629808e-04
  5.5828475e-04   1.0099353e-03
 -2.6047243e-02   3.8400307e-05
 -6.9410086e-02   8.1793830e-04
  1.7215280e-02   9.8596932e-04
  1.8077153e-01   6.2168256e-05
 -1.1843685e-03   3.8029434e-04
 -7.2065894e-03   3.6842132e-04
 -2.5883846e-03   5.9354678e-04
 -7.8305995e-01   2.0853164e-04
 -1.4789702e-03   4.7021362e-04
  3.2226937e-03   1.1544114e-03
 -3.0674729e-02   7.0165424e-04
  1.9066350e-03   1.0568167e-03
 -5.1032240e-03   3.5767377e-04
 -6.6399835e-03   1.3680236e-03
 -2.3113173e-02   8.3959370e-04
  1.0559312e-03   8.9764525e-04
 -8.1103772e-04   6.2403170e-04
 -4.8564854e-03   1.3718066e-03
 -2.5088091e-03   1.9400310e-03
  1.4102604e-03   9.9472942e-05
  9.6203275e-03   2.4446179e-03
  2.1759118e-03   1.2218495e-03
  8.4426636e-03   1.6325332e-03
  2.5008353e-03   1.8862364e-03
  4.4980398e-01   2.0433610e-04
  1.4652039e-01   4.2117175e-04
 -3.3335522e-01   4.0282367e-04
  2.5130904e-01   8.1546488e-05
 -7.8045821e-01   8.0837621e-05
 -1.7800520e-01   1.9775881e-04
 -8.2430236e-02   1.7145312e-04
  1.5025258e-02   8.1606582e-04
 -3.5447401e-01   4.9847050e-04
 -3.3720946e-03   1.0130063e-03
 -5.7716686e-02   2.1494846e-03
 -2.3353276e-01   1.5241440e-03
 -3.6091015e-01   7.7629906e-05
  1.5377143e-03   1.6751818e-03
  3.2786615e-04   9.1733295e-04
  5.2396259e-03   9.2215545e-04
  5.0048584e-01   3.3203352e-04
  4.4523627e-03   5.1629875e-04
  1.1182676e-01   2.7081929e-04
 -8.7972004e-03   8.8618201e-04
  7.9219351e-03   2.7522555e-04
  1.4846551e-03   5.1823072e-04
 -1.6155335e-03   4.3575987e-04
  6.1490312e-02   4.3454274e-04
 -3.1020406e-03   1.1759173e-03
 -3.3073001e-02   1.5113568e-04
  1.0673623e-03   5.4168032e-04
  6.1071791e-02   4.5988705e-05
 -3.3490723e-03   9.5840613e-04
 -1.1786288e-03   4.7736446e-04
 -6.1455728e-03   1.0680526e-03
  5.7324017e-03   7.9572888e-04
 -4.8741954e-03   5.9842848e-04
 -4.7562090e-03   7.5196160e-04
 -5.7505714e-03   7.9825165e-04
 -1.7866165e-03   7.2470360e-04
 -1.0755744e-03   1.6919269e-03
 -2.3157507e-02   8.2305365e-04
 -6.1174436e-03   1.7023551e-03
 -8.7119527e-03   8.2218909e-04
  2.4171644e-03   3.6741782e-04
 -3.0966613e-03   1.1665348e-03
  6.4970995e-04   1.3284154e-03
  2.1362756e-03   7.2705426e-04
 -1.4536189e-02   1.0250508e-03
 -5.6685070e-03   1.2610293e-03
 -3.5906814e-03   1.1356651e-04
 -2.1250658e-02   9.0594980e-04
 -1.9017022e-02   2.1084554e-03
 -1.1185743e-02   4.2419412e-04
  6.8318611e-04   1.2738775e-03
 -2.9871380e-04   1.7416397e-03
  2.0225975e-03   1.0728204e-03
  3.9715106e-03   9.0004760e-04
 -2.4876299e-03   8.7342371e-04
  1.5723188e-03   8.6739508e-04
  2.7439513e-03   4.1755658e-04
  6.7988387e-03   6.1122508e-04
 -9.9598626e-03   8.5039000e-04
  2.7487830e-03   7.1912695e-04
 -1.2185721e-03   1.2290912e-03
 -1.1466800e-03   2.0416479e-03
 -4.9952166e-03   8.5793523e-04
 -1.1280701e-03   1.6441805e-03
  4.1683344e-03   1.9186134e-03
  8.1231734e-03   1.4454725e-03
 -8.0700824e-03   3.0671363e-04
 -4.4039669e-03   1.7900248e-03
 -1.6199253e-03   1.7222215e-03
 -2.0582743e-03   7.6456927e-04
 -3.6413649e-03   2.2250751e-03
  3.4860140e-04   7.1941369e-04
 -2.1903270e-03   7.2319951e-04
 -4.4641402e-03   1.2186517e-03
  6.3690147e-03   2.0637419e-03
 -2.1531484e-03   1.8902040e-03
 -3.5030425e-03   3.7713535e-04
  3.0164192e-03   7.7826227e-04
 -4.0900400e-03   1.5325340e-03
 -5.4488862e-03   5.6152348e-04
  1.3455296e-03   1.1131864e-03
 -8.4643122e-03   1.5223513e-03
 -1.7998184e-03   2.1816210e-03
 -7.5660390e-03   2.0696844e-04
 -5.6689922e-03   8.0044277e-04
 -7.2611105e-03   1.9529818e-03
 -7.8919617e-04   1.0432318e-03
  2.4676593e-03   9.2077971e-04
  1.4406918e-01   2.3562003e-05
 -8.1657991e-02   5.4764572e-05
  2.3625742e-01   2.1979347e-05
  1.5077747e-01   1.5014390e-05
  1.3947770e-02   2.4747398e-05
 -1.1490969e-01   7.1561335e-05
 -2.5598082e-01   3.0203786e-05
  8.2282647e-02   2.3390692e-04
  4.9505003e-02   2.3684408e-05
  3.7720730e-03   3.4814898e-04
 -1.8402842e-01   1.5840317e-04
  2.2310308e-01   2.5265891e-04
 -2.4161103e-01   2.2328628e-04
  1.2062283e-02   9.2080067e-04
  3.9522573e-02   2.7530611e-04
  1.3087632e-01   1.0809255e-04
  7.7175107e-03   5.3341519e-05
  1.2067555e-01   2.7525827e-04
  6.0517323e-01   1.5057639e-04
 -4.5943130e-03   2.3350937e-04
 -5.1693141e-01   3.6462041e-04
 -3.8641461e-04   2.7810017e-04
 -4.0019364e-03   2.0413582e-04
  8.7527983e-02   7.2695468e-05
 -1.2404132e-01   1.6124011e-04
  6.8983741e-02   3.2597512e-05
  3.8351455e-01   1.8021274e-04
  1.5390149e-01   2.5488322e-05
  1.3048871e-01   7.4438860e-05
 -1.8713431e-01   2.1649421e-04
  2.6975662e-01   2.6116133e-04
 -3.0519482e-01   1.7060307e-04
  2.5110921e-01   2.3855688e-04
 -5.3805608e-02   1.2104486e-04
  1.7199649e-02   2.9311256e-04
 -3.6670812e-03   3.6295314e-04
 -2.5654960e-01   1.7945458e-04
 -3.8110841e-02   1.4767298e-04
 -8.0460839e-02   1.3394959e-03
  1.2750101e-01   3.0896999e-04
  9.3259133e-02   7.2442606e-04
  1.7107052e-01   1.9895211e-04
 -3.7666947e-02   6.9619803e-04
 -3.7518707e-03   7.3462806e-04
 -2.9402178e-02   4.0633327e-04
  1.0511853e-02   3.0301619e-04
  1.1134781e-01   1.0325769e-03
  5.9452541e-02   1.7725526e-04
  3.3959359e-02   4.9030379e-04
  4.9624333e-01   2.5191708e-04
  3.1506512e-01   4.7819436e-04
 -4.5033176e-03   7.1655016e-04
  1.6289053e-02   2.0970542e-03
 -2.5180674e-03   1.5966435e-03
  1.0531412e-03   7.1300322e-04
  2.0079864e-02   9.3158375e-04
 -3.6161069e-03   9.1408618e-04
  3.1523230e-03   6.5563136e-04
  3.9425427e-03   2.6756528e-04
  3.6382207e-03   9.1422163e-04
  1.1661719e-03   7.0197403e-04
 -5.0916662e-03   2.6838547e-03
 -1.0145926e-01   3.3717541e-04
  1.4602367e-05   1.2029584e-03
 -4.6256920e-03   1.3390697e-03
  1.4392153e-03   1.1181370e-03
  2.1309203e-03   5.9180515e-04
 -4.1807294e-02   1.8561429e-03
  7.5846963e-04   2.0115199e-03
 -1.5894471e-03   1.1506408e-03
 -5.1567543e-02   9.7529253e-04
  5.9136277e-01   1.4514255e-03
  3.9504343e-03   1.1487080e-03
 -3.2682805e-03   3.2391788e-03
 -2.2941716e-03   1.1655090e-03
 -3.4326063e-03   1.0406331e-03
 -8.3566001e-03   7.2726147e-04
 -1.0566840e-02   1.5507258e-03
 -7.5315586e-03   2.6087984e-03
  8.1409831e-03   9.6709951e-04
 -8.9679239e-03   2.0422051e-03
 -2.1248830e-03   1.7196945e-03
 -1.2609282e-03   2.0702618e-04
 -1.4317371e-03   6.9329119e-04
  1.0912750e-03   1.8779990e-03
  1.6064442e-03   1.4400753e-03
 -9.7924192e-04   1.3553711e-03
 -2.9793463e-03   7.6973165e-04
 -1.1294664e-02   5.2966690e-04
  4.1552309e-02   7.3824002e-04
 -6.4328117e-03   1.1205567e-03
 -5.1531591e-04   2.1312086e-04
  9.1216592e-03   1.0249886e-03
 -1.5896051e-03   3.5463681e-04
  6.5907888e-02   3.3597727e-04
 -2.6514915e-01   1.6810095e-04
 -1.4503761e-03   4.2507955e-04
  5.0868774e-03   1.7179509e-03
 -1.8888101e-03   1.8341413e-03
  6.2337355e-04   2.1374761e-03
  1.8932363e-04   1.2157261e-03
  7.1962965e-03   1.4768549e-03
  2.3395589e-02   1.6743339e-03
 -7.1153040e-03   4.2320022e-04
 -1.9611940e-03   7.5325498e-04
  2.0290313e-03   1.1601935e-03
  1.8632052e-03   6.2920788e-04
 -1.9629323e-03   9.6091634e-04
  1.2024133e-03   1.0762878e-03
 -4.5161629e-03   3.8069233e-04
 -3.3311505e-04   4.5689766e-04
 -1.4518276e-02   6.1061460e-04
 -3.3052035e-02   8.9016667e-04
  2.8309083e-04   7.0596987e-04
  1.8164917e-03   4.7660622e-04
  5.6539427e-02   4.4949117e-04
  1.2267601e-03   9.3189272e-04
 -1.0849102e-03   7.1817805e-04
 -9.5940791e-03   6.5364438e-04
 -4.7718449e-03   6.2715256e-04
  7.5690250e-04   1.4624749e-03
 -3.3411098e-04   7.8651629e-04
 -9.8654491e-05   1.4500432e-03
  1.7639142e-03   1.2495187e-03
 -8.9671707e-04   1.3929809e-03
  1.0891057e-02   1.1547976e-03
 -3.4653633e-03   7.1546237e-04
  1.5664868e-02   3.2543010e-04
 -2.0351275e-05   1.6330139e-03
 -9.9548073e-05   1.4398685e-03
 -1.3513095e-04   9.4841962e-04
 -1.3978350e-03   1.3176946e-03
  2.6718786e-03   3.7233380e-04
  1.0137692e-01   6.5926265e-04
 -3.4486498e-03   4.7795178e-04
  1.5139105e-03   5.3524628e-04
 -1.5497916e-02   7.0352928e-04
 -4.3040246e-04   5.9552159e-04
  2.3087931e-03   3.3424218e-04
  1.7506228e-03   1.4993307e-03
 -1.0071255e-03   6.4794970e-04
 -6.1611581e-04   1.1589319e-03
 -1.6168716e-04   5.3496036e-04
  6.6995211e-03   1.9200747e-03
  6.5131718e-04   1.2310100e-03
  1.4063891e-03   1.0606714e-03
  1.9765843e-03   1.3950302e-03
 -3.2800308e-03   5.2408047e-04
 -4.4415593e-03   4.4728382e-04
  7.1964357e-03   1.4888620e-03
  1.7894002e-03   7.5438543e-04
  4.8694941e-03   1.1207450e-03
  3.8994963e-03   1.0595241e-03
  7.8507485e-03   8.1357150e-04
  3.2219815e-03   1.7278843e-03
  1.5390763e-02   3.1723312e-04
 -9.4040884e-03   1.0716335e-03
 -1.0967001e-03   7.8953221e-04
 -5.9739989e-03   7.5653417e-04
  4.2324610e-02   1.9977856e-04
  1.3326484e-03   1.2300088e-03
 -2.4310797e-03   1.2477211e-03
  5.1426850e-03   1.3897346e-03
 -1.0812920e-02   1.6943625e-03
 -9.6752011e-04   8.9656026e-04
  3.4052769e-03   1.5986470e-03
  5.6047732e-04   9.7549788e-04
  3.3385353e-04   1.4503424e-03
 -8.3054288e-04   1.6097967e-03
  7.1166311e-03   3.9646227e-04
 -5.2465621e-06   2.2253005e-03
 -5.1840898e-03   2.3550482e-04
 -4.8813559e-03   4.3190044e-04
 -9.0007496e-04   1.8283988e-03
 -5.7942802e-03   8.4293558e-04
  2.5921185e-03   8.9718576e-04
  3.4443444e-01   1.8563002e-04
 -2.5683460e-01   3.1827196e-05
  1.8213785e-01   1.5062018e-04
 -6.1762836e-02   9.1844020e-05
  3.5686091e-01   2.5985166e-05
 -8.4230471e-01   8.7609456e-05
 -7.5581443e-01   1.4162998e-04
 -4.7190387e-02   2.3781117e-04
 -1.1937086e-02   1.8195828e-04
  2.4671156e-03   9.7603753e-04
 -3.5521830e-03   5.8304501e-04
  9.2949970e-03   7.4149796e-04
  1.1807494e-04   6.9351605e-04
  2.5089066e-03   1.1461626e-03
 -2.9978892e-03   5.8210391e-04
  1.9241434e-02   7.4932550e-04
 -3.1743576e-03   2.2519629e-04
 -1.1717496e-01   1.8273962e-04
 -1.1968210e-01   4.9001700e-04
 -5.4881491e-02   2.6380894e-04
  5.1120661e-02   6.8400528e-05
 -8.8061602e-04   7.9427811e-04
  7.4632198e-02   1.0481125e-03
  1.0883935e-01   1.5185660e-04
  1.3714287e-02   1.0569270e-03
  1.4927308e-01   2.0118679e-04
 -5.5743430e-02   4.5799479e-04
 -1.7021561e-01   2.2973967e-04
 -1.5933000e-01   4.7598910e-04
  2.5744755e-03   3.2571529e-04
  4.0716922e-04   3.2573700e-04
 -3.4288352e-03   1.8890260e-03
  1.1645158e-02   1.6131256e-04
  5.1420340e-03   7.4721774e-04
 -1.6896117e-02   8.6124358e-04
 -6.6516898e-04   9.3770510e-04
  1.5862897e-05   6.5781130e-04
 -7.0541807e-02   1.0940473e-03
 -1.3500942e-03   1.1223538e-03
 -7.8338288e-02   1.0073195e-03
  1.1303618e-04   1.1513636e-03
  1.1136454e-03   1.0651615e-03
 -4.9112597e-03   6.0606038e-04
 -5.5962056e-04   1.0011820e-03
 -7.1774693e-03   5.8942329e-04
  1.2553647e-03   5.1559584e-04
  1.0604776e-02   8.7779883e-04
  2.0936192e-03   2.0495499e-03
  2.1610637e-03   1.3173383e-03
 -1.5571315e-03   4.4301944e-04
 -2.0876301e-02   4.5492838e-04
 -1.0442339e-03   8.7864837e-04
  1.7016254e-03   9.3197863e-04
  2.3883274e-03   1.6262198e-03
 -1.0298749e-02   3.6385021e-04
 -2.2136934e-02   1.4753389e-03
  5.6843520e-03   2.3476931e-03
 -8.1769181e-03   1.0681222e-03
  1.3642315e-02   8.2148553e-04
 -2.3923770e-03   2.9807177e-03
  9.1439672e-04   1.7714149e-03
 -6.5752392e-05   5.7266821e-04
  2.7869231e-04   1.3592396e-03
  8.6744595e-04   1.6223039e-03
 -5.9900270e-03   2.3616049e-03
 -1.6659820e-03   8.3446887e-04
  1.6995040e-03   8.4056304e-04
  2.1231566e-03   9.4463938e-04
 -1.3096338e-03   8.1353105e-04
 -1.8693780e-03   8.6143153e-04
 -6.8175688e-02   2.9856001e-04
  5.2213218e-05   1.0574335e-03
  1.7900942e-03   1.3728495e-03
  9.0731066e-03   2.2482199e-03
  2.0567179e-03   1.1814248e-03
 -1.1420361e-03   9.3485077e-04
 -5.3567528e-03   1.7545746e-03
 -3.1698027e-03   1.3320124e-03
 -2.5124573e-03   1.8226686e-03
  5.3531653e-04   1.2401859e-03
  1.9210771e-03   1.0843131e-03
  2.8492215e-01   5.8137539e-05
 -1.6068445e-03   1.2553089e-03
  7.6809927e-04   1.4814441e-03
  3.2166038e-03   7.9558115e-04
 -8.1895909e-04   2.3935079e-03
  3.3119676e-01   8.6380116e-04
  3.4239702e-03   1.2327435e-03
  2.1538027e-03   1.4464887e-03
 -1.2802626e-02   1.8504817e-03
 -6.4001838e-04   9.1016467e-04
 -3.4340392e-03   1.3197355e-03
 -1.3299657e-03   9.2821027e-04
 -1.0650728e-02   1.5994993e-03
  9.0103233e-03   2.0523178e-03
  9.6165319e-04   2.0150910e-03
 -1.3690470e-03   1.5363828e-03
 -1.3237402e-03   2.0422465e-03
  7.4979512e-04   2.7220398e-03
  1.6965304e-03   5.9236703e-04
  1.9033701e-05   7.2231365e-04
  3.9399993e-03   1.3132065e-03
  2.6995896e-03   9.8667317e-04
 -3.0771871e-03   4.9587840e-04
  1.6348418e-03   5.3084036e-04
  4.6752766e-03   1.6969604e-03
 -4.5400849e-03   6.0194323e-04
  1.0496863e-02   1.8866571e-03
  6.8731238e-03   2.0575647e-03
  6.7007653e-03   1.2608707e-03
 -6.9432141e-04   1.5830346e-03
  2.6874617e-02   1.8267798e-04
 -2.8516478e-03   1.5693321e-03
  3.0431341e-04   6.3438050e-04
 -2.2859203e-02   1.9499715e-04
  1.2509824e-03   1.8150635e-03
  7.5736130e-04   7.4966386e-04
 -3.2906844e-03   6.1468210e-04
  2.4184579e-04   1.0310871e-03
  3.9244760e-02   1.2974552e-04
  2.0943736e-04   1.6173135e-03
  2.0941244e-02   1.2965602e-03
  6.1725592e-03   1.2235749e-03
  6.6167628e-03   1.0935152e-03
 -5.8817398e-03   1.6361938e-03
 -2.8707634e-03   1.7554237e-03
 -6.6744415e-03   1.3356246e-03
 -5.5602653e-04   7.7574060e-04
 -2.2850933e-03   1.4668332e-03
 -8.8609643e-03   1.9754141e-03
 -1.4633899e-02   2.3627190e-03
 -5.1228900e-04   1.8705097e-03
 -3.9097397e-03   9.5044216e-04
  5.0684373e-04   1.0284084e-03
 -4.2701983e-03   5.0682784e-04
  5.1819440e-03   9.6535246e-04
  6.4985437e-04   1.2197318e-03
 -6.8123773e-04   1.6082585e-03
  6.4699983e-05   1.1686581e-03
  5.0839689e-03   1.0224127e-03
  6.8778500e-02   4.4712817e-04
  1.1080318e-03   1.0079922e-03
 -4.7868883e-04   1.5343506e-03
  1.7359614e-03   8.5386180e-04
 -1.0665380e-03   9.2533918e-04
 -1.2896074e-02   1.8985423e-04
  4.4457178e-04   1.3247830e-03
  3.4806472e-03   8.3180075e-04
  1.2623824e-02   5.8758445e-04
  5.9732883e-03   9.5312990e-04
 -1.3973246e-02   1.2489132e-03
  8.1862872e-03   1.1752767e-03
  4.8462888e-03   6.0938089e-04
 -1.3673689e-03   3.8534013e-04
  1.7499086e-03   8.5577078e-04
 -4.5215758e-03   1.5664847e-03
 -1.2973621e-02   7.5841352e-04
 -8.5421214e-03   1.0942086e-03
 -2.6062182e-03   1.0619311e-03
  3.9936285e-03   1.1911547e-03
  1.8672574e-03   2.1660966e-03
  4.2027254e-03   2.4758645e-03
 -1.2574361e-02   8.0924033e-04
  1.1844435e-03   1.2611219e-03
  2.1231757e-03   1.0161179e-03
 -6.8665657e-04   1.0305605e-03
  4.6519851e-03   1.1904699e-03
 -1.9268459e-03   1.3320583e-03
  4.3614227e-03   2.4745101e-03
  1.1406551e-04   1.0181108e-03
 -3.2458014e-03   2.1757942e-03
  5.2575720e-03   1.8724801e-03
 -6.3804300e-03   1.4792879e-03
  4.4246078e-03   2.1508629e-03
 -1.8425983e-03   7.9194159e-04
 -9.6976565e-04   9.6086931e-04
  5.4405278e-01   3.3084062e-04
 -3.1614788e-02   3.1287668e-04
  1.6361164e-01   1.9610098e-04
 -1.3596483e-01   3.2242519e-04
  5.0836168e-02   9.5664422e-05
 -4.4818643e-02   2.6065374e-05
  3.5585263e-01   1.8948686e-04
  9.0616442e-02   6.5148063e-04
 -1.3255759e+00   9.9818724e-05
  4.5331378e-02   1.5585219e-03
  6.0168616e-02   1.0763429e-03
 -4.6236556e-02   2.7344868e-04
 -2.0780530e-02   7.8793685e-04
  1.1348993e-03   5.8933534e-04
 -4.6252081e-01   1.2553234e-03
 -4.8727505e-02   1.6166837e-03
 -1.3219783e-01   8.0960293e-05
  1.1190541e-01   8.3990901e-04
 -1.0416453e-01   4.6328548e-04
 -3.7015697e-01   8.2152075e-04
  1.0119037e-02   2.4904311e-04
 -4.2004028e-01   5.6350901e-04
  1.6391773e-03   5.7968701e-04
 -3.2661819e-01   2.0408687e-04
  2.7201539e-01   1.4702511e-03
 -8.4055945e-02   1.4546418e-04
 -6.6312081e-01   5.2541064e-04
 -3.5248652e-01   5.8989640e-04
 -1.2237723e-01   3.9796298e-04
 -7.7164181e-02   1.0937813e-03
  1.5928918e-02   2.1620034e-04
  1.1388548e-03   2.4369219e-04
  4.1509435e-01   2.3504035e-04
  1.2490280e-02   4.7493170e-04
  7.5922263e-01   3.7236523e-04
  1.5366326e-02   2.1685837e-03
 -1.6565593e-02   1.2623061e-03
 -1.1774100e-01   7.1694801e-04
 -2.9644390e-04   4.2724828e-04
  7.5185806e-02   1.8734862e-03
 -8.7373974e-03   4.5272248e-04
 -1.3537409e-03   1.3986412e-03
 -1.1732023e-03   2.2928508e-03
 -3.0395102e-02   2.0535965e-03
 -1.2494952e-03   7.8702229e-04
 -8.0734892e-03   7.1199361e-04
 -1.6557269e-03   8.6270971e-04
 -9.8438941e-02   1.4427786e-04
  6.9242495e-04   9.9760608e-04
 -1.4356316e-02   2.4006463e-04
 -1.1357298e-01   1.2655208e-03
 -1.9821436e-03   8.3996262e-04
  2.1058284e-03   1.2796762e-03
  1.6926230e-03   1.3363214e-03
  8.6798174e-03   9.7699242e-04
  3.0232483e-04   7.7763456e-04
 -4.2609745e-03   1.6113487e-03
 -4.1651218e-03   1.8060238e-03
 -6.1910520e-03   9.0469816e-04
  5.9945681e-03   2.3514649e-03
 -1.2081005e-03   1.4673312e-04
 -4.9937707e-03   1.4366418e-03
 -3.0271721e-03   7.9469691e-04
 -5.0862683e-03   1.3761729e-03
 -8.5169328e-03   1.4804014e-03
  1.3487105e-03   1.5853114e-03
  5.3321049e-03   8.3751162e-04
  7.5712940e-04   5.7073747e-04
 -2.5631303e-03   1.1487695e-03
  9.0456818e-04   7.1750634e-04
  2.1985695e-03   4.6361584e-04
 -7.4900067e-03   1.8043570e-03
 -4.3105586e-03   4.0602166e-04
 -6.3854498e-03   1.2320424e-03
  1.6688694e-03   1.1668202e-03
  7.9149976e-03   9.2077785e-04
  2.8541132e-03   9.2607422e-04
 -2.4895516e-04   1.1238061e-03
  5.6945295e-03   9.0931682e-04
  1.7737065e-02   1.7334197e-03
 -1.7380327e-03   7.7068759e-04
 -6.4020986e-03   1.5274864e-03
 -2.0489510e-04   5.3849589e-04
  1.5834779e-02   1.0938337e-03
  3.2218404e-03   1.3171531e-03
 -2.7561517e-02   1.3860151e-03
  1.6046889e-03   1.2536905e-03
 -4.2979498e-03   1.7334537e-03
 -9.0322733e-01   6.8245688e-05
  8.6734396e-01   1.4208219e-04
  6.8281792e-02   6.8117974e-05
  7.2096229e-01   1.9447162e-04
 -1.8904308e+00   8.6901702e-05
  2.0763454e-01   1.2428952e-04
 -7.6602596e-01   4.1645955e-05
  2.2376926e-01   1.1637224e-03
 -9.0760577e-01   1.3321216e-04
  3.0854049e-01   5.3651910e-04
  5.2235294e-02   3.7421685e-04
 -5.5079150e-01   6.5648399e-04
  3.3391209e-04   7.4441056e-04