
***************************************************************
*                 Welcome to use GPUMD                        *
*    (Graphics Processing Units Molecular Dynamics)           *
*                     Version 3.8                             *
*              This is the nep executable                     *
***************************************************************


---------------------------------------------------------------
GPU information:
---------------------------------------------------------------

number of GPUs = 1
Device id:                   0
    Device name:             NVIDIA GeForce RTX 3080 Ti
    Compute capability:      8.6
    Amount of global memory: 11.7629 GB
    Number of SMs:           80

---------------------------------------------------------------
Started running nep.
---------------------------------------------------------------


---------------------------------------------------------------
Started reading nep.in.
---------------------------------------------------------------

Input or default parameters:
    (default) model_type = potential.
    (default) calculation mode = train.
    (input)   use NEP version 4.
    (input)   number of atom types = 2.
        (default) type 0 (Cu with Z = 29) has force weight of 1.
        (default) type 1 (Se with Z = 34) has force weight of 1.
    (default) will not add the ZBL potential.
    (input)   radial cutoff = 7 A.
    (input)   angular cutoff = 5 A.
    (input)   n_max_radial = 8.
    (input)   n_max_angular = 6.
    (input)   basis_size_radial = 12.
    (input)   basis_size_angular = 12.
    (input)   l_max_3body = 4.
    (input)   l_max_4body = 2.
    (input)   l_max_5body = 0.
    (input)   number of neurons = 50.
    (default) lambda_1 = -1.
    (default) lambda_2 = -1.
    (input)   lambda_e = 1.
    (input)   lambda_f = 1.
    (input)   lambda_v = 0.2.
    (default) lambda_shear = 1.
    (default) force_delta = 0.
    (input)   batch size = 1000.
    (input)   population size = 50.
    (input)   maximum number of generations = 200000.
Some calculated parameters:
    number of radial descriptor components = 9.
    number of angular descriptor components = 35.
    total number of descriptor components = 44.
    NN architecture = 44-50-1.
    number of NN parameters to be optimized = 4601.
    number of descriptor parameters to be optimized = 832.
    total number of parameters to be optimized = 5433.

---------------------------------------------------------------
Finished reading nep.in.
---------------------------------------------------------------


---------------------------------------------------------------
Started reading train.xyz.
---------------------------------------------------------------

Number of configurations = 370.
Number of devices = 1
Number of batches = 1
Hello, I changed the batch_size from 1000 to 370.

Batch 0:
Number of configurations = 370.

---------------------------------------------------------------
Constructing train_set in device  0.
Total number of atoms = 104820.
Number of atoms in the largest configuration = 596.
Number of configurations having virial = 370.
Radial descriptor with a cutoff of 7 A:
    Minimum number of neighbors for one atom = 63.
    Maximum number of neighbors for one atom = 100.
Angular descriptor with a cutoff of 5 A:
    Minimum number of neighbors for one atom = 20.
    Maximum number of neighbors for one atom = 44.
---------------------------------------------------------------


---------------------------------------------------------------
Started reading test.xyz.
---------------------------------------------------------------

Number of configurations = 170.

---------------------------------------------------------------
Constructing test_set in device  0.
Total number of atoms = 50240.
Number of atoms in the largest configuration = 596.
Number of configurations having virial = 170.
Radial descriptor with a cutoff of 7 A:
    Minimum number of neighbors for one atom = 63.
    Maximum number of neighbors for one atom = 95.
Angular descriptor with a cutoff of 5 A:
    Minimum number of neighbors for one atom = 20.
    Maximum number of neighbors for one atom = 40.
---------------------------------------------------------------


---------------------------------------------------------------
Time used for initialization = 0.687942 s.
---------------------------------------------------------------


---------------------------------------------------------------
Started training.
---------------------------------------------------------------

Step    Total-Loss L1Reg-Loss L2Reg-Loss RMSE-E-Train RMSE-F-Train RMSE-V-Train RMSE-E-Test  RMSE-F-Test  RMSE-V-Test  
100     0.40487    0.07411    0.09091    0.01067      0.19645      0.16369      0.01035      0.18483      0.17082      
200     0.39034    0.07681    0.09483    0.01176      0.18574      0.10595      0.01015      0.17844      0.10237      
300     0.38442    0.08029    0.09949    0.00852      0.17682      0.09647      0.00921      0.16640      0.07514      
400     0.38146    0.08246    0.10305    0.00773      0.17085      0.08689      0.00907      0.16353      0.07939      
500     0.42005    0.09466    0.11837    0.01035      0.18054      0.08059      0.00774      0.17522      0.06240      
600     0.40210    0.09325    0.11700    0.00923      0.16955      0.06531      0.00918      0.16707      0.07234      
700     0.42350    0.10068    0.12650    0.01077      0.16808      0.08734      0.01159      0.16270      0.08274      
800     0.42498    0.10337    0.12995    0.00892      0.16034      0.11196      0.01118      0.15443      0.11476      
900     0.41689    0.10313    0.13026    0.01030      0.15842      0.07385      0.00780      0.15220      0.04981      
1000    0.44750    0.11290    0.14286    0.01317      0.16433      0.07124      0.01350      0.15912      0.08129      
1100    0.40280    0.10335    0.13085    0.00629      0.15174      0.05283      0.00638      0.14821      0.03075      
1200    0.42573    0.11055    0.14039    0.01039      0.15099      0.06706      0.01053      0.14871      0.06213      
1300    0.40631    0.10669    0.13562    0.00738      0.14369      0.06456      0.00649      0.14068      0.05168      
1400    0.44429    0.11824    0.15051    0.00715      0.15414      0.07119      0.00714      0.15185      0.06305      
1500    0.39436    0.10621    0.13498    0.00670      0.13413      0.06173      0.00799      0.13177      0.07416      
1600    0.45583    0.12400    0.15779    0.01763      0.13949      0.08454      0.01215      0.13489      0.10011      
1700    0.43065    0.11825    0.15080    0.01312      0.13579      0.06344      0.00804      0.13255      0.05129      
1800    0.43870    0.12115    0.15494    0.01066      0.13976      0.06100      0.00668      0.13680      0.07380      
1900    0.44856    0.12507    0.15927    0.00954      0.14026      0.07212      0.00891      0.13370      0.04555      
2000    0.44611    0.12521    0.15983    0.00950      0.14051      0.05532      0.00956      0.13670      0.04215      
2100    0.45911    0.13007    0.16567    0.00838      0.14215      0.06424      0.01010      0.13583      0.04714      
2200    0.43584    0.12421    0.15846    0.01037      0.13303      0.04880      0.01082      0.12926      0.05276      
2300    0.45686    0.13107    0.16714    0.01027      0.13293      0.07719      0.00892      0.12893      0.06119      
2400    0.43617    0.12582    0.16065    0.00956      0.13216      0.03982      0.00521      0.12869      0.03826      
2500    0.43126    0.12516    0.15959    0.00984      0.12883      0.03921      0.00911      0.12374      0.04002      
2600    0.41656    0.12152    0.15525    0.00838      0.12250      0.04456      0.00902      0.11626      0.03263      
2700    0.44013    0.12903    0.16479    0.00689      0.12460      0.07411      0.00692      0.12044      0.08021      
2800    0.41749    0.12323    0.15723    0.00649      0.11829      0.06125      0.00631      0.11648      0.06880      
2900    0.42460    0.12588    0.16106    0.00559      0.12187      0.05102      0.00506      0.11868      0.04957      
3000    0.44775    0.13238    0.17124    0.00855      0.12101      0.07283      0.00798      0.11730      0.04713      
3100    0.44145    0.13125    0.16959    0.00849      0.12130      0.05409      0.00746      0.11749      0.03636      
3200    0.42041    0.12581    0.16210    0.00787      0.11506      0.04792      0.00803      0.11171      0.03467      
3300    0.42686    0.12800    0.16561    0.00570      0.11708      0.05234      0.00461      0.11512      0.03185      
3400    0.41975    0.12667    0.16320    0.00678      0.11548      0.03811      0.00673      0.11249      0.03129      
3500    0.42154    0.12764    0.16418    0.00542      0.11759      0.03357      0.00604      0.11335      0.03467      
3600    0.42713    0.12983    0.16698    0.00741      0.11116      0.05875      0.00840      0.10715      0.04502      
3700    0.40696    0.12410    0.15963    0.00463      0.10911      0.04749      0.00524      0.10589      0.04117      
3800    0.42344    0.12942    0.16688    0.00668      0.11162      0.04423      0.00741      0.10731      0.03563      
3900    0.41718    0.12807    0.16484    0.00516      0.11058      0.04263      0.00631      0.10658      0.04151      
4000    0.42278    0.13025    0.16784    0.00785      0.10881      0.04012      0.00584      0.10643      0.04139      
4100    0.41037    0.12669    0.16330    0.00697      0.10749      0.02958      0.00615      0.10448      0.03004      
4200    0.40892    0.12642    0.16303    0.00618      0.10597      0.03663      0.00492      0.10189      0.03221      
4300    0.40928    0.12711    0.16364    0.00533      0.10359      0.04803      0.00517      0.10023      0.03545      
4400    0.39943    0.12412    0.16032    0.00414      0.10436      0.03247      0.00476      0.10017      0.03200      
4500    0.41422    0.12913    0.16686    0.00660      0.10536      0.03138      0.00590      0.10164      0.02662      
4600    0.40600    0.12677    0.16367    0.00396      0.10507      0.03267      0.00492      0.10196      0.03423      
4700    0.39802    0.12462    0.16082    0.00316      0.10200      0.03712      0.00360      0.09953      0.02847      
4800    0.39817    0.12489    0.16102    0.00464      0.10160      0.03010      0.00429      0.09981      0.02523      
4900    0.41572    0.13100    0.16890    0.00500      0.10514      0.02842      0.00563      0.10222      0.02782      
5000    0.41239    0.12985    0.16747    0.00745      0.10064      0.03491      0.00643      0.09618      0.03195      
5100    0.40106    0.12676    0.16287    0.00351      0.09973      0.04100      0.00338      0.09618      0.03363      
5200    0.41043    0.12988    0.16722    0.00590      0.10069      0.03371      0.00746      0.09783      0.03000      
5300    0.38895    0.12334    0.15898    0.00457      0.09605      0.03005      0.00496      0.09294      0.02297      
5400    0.40401    0.12829    0.16563    0.00406      0.10033      0.02849      0.00401      0.09778      0.02678      
5500    0.41925    0.13324    0.17234    0.00696      0.09872      0.03994      0.00733      0.09560      0.03994      
5600    0.40382    0.12866    0.16634    0.00473      0.09778      0.03159      0.00390      0.09470      0.02481      
5700    0.40128    0.12795    0.16548    0.00374      0.09770      0.03205      0.00356      0.09378      0.02949      
5800    0.39577    0.12643    0.16350    0.00320      0.09790      0.02367      0.00375      0.09437      0.02167      
5900    0.41135    0.13147    0.17033    0.00660      0.09714      0.02906      0.00515      0.09381      0.03249      
6000    0.40340    0.12900    0.16740    0.00559      0.09533      0.03039      0.00651      0.09377      0.03273      
6100    0.40437    0.12949    0.16785    0.00627      0.09573      0.02511      0.00581      0.09344      0.02109      
6200    0.41135    0.13172    0.17107    0.00533      0.09401      0.04609      0.00590      0.09065      0.04184      
6300    0.39440    0.12654    0.16421    0.00367      0.09476      0.02609      0.00384      0.09178      0.02092      
6400    0.40228    0.12891    0.16760    0.00497      0.09308      0.03866      0.00549      0.09078      0.04275      
6500    0.39907    0.12785    0.16646    0.00498      0.09338      0.03195      0.00610      0.09064      0.02547      
6600    0.40397    0.12950    0.16865    0.00541      0.09516      0.02630      0.00550      0.09311      0.02441      
6700    0.40290    0.12945    0.16836    0.00486      0.09381      0.03207      0.00491      0.09072      0.03429      
6800    0.39252    0.12637    0.16429    0.00433      0.09294      0.02301      0.00481      0.08998      0.02119      
6900    0.41365    0.13309    0.17292    0.00349      0.09375      0.05199      0.00361      0.09003      0.04320      
7000    0.39125    0.12637    0.16380    0.00340      0.09150      0.03086      0.00396      0.08891      0.03260      
7100    0.38965    0.12614    0.16328    0.00409      0.09030      0.02915      0.00401      0.08761      0.02102      
7200    0.39770    0.12901    0.16708    0.00458      0.09192      0.02554      0.00544      0.08884      0.02358      
7300    0.39749    0.12922    0.16702    0.00573      0.09109      0.02210      0.00622      0.08753      0.02059      
7400    0.39535    0.12844    0.16645    0.00474      0.09125      0.02236      0.00465      0.08863      0.02224      
7500    0.40011    0.13031    0.16857    0.00383      0.09132      0.03039      0.00389      0.08775      0.02664      
7600    0.39862    0.13007    0.16800    0.00498      0.09001      0.02780      0.00389      0.08748      0.03235      
7700    0.40042    0.13057    0.16876    0.00286      0.09338      0.02421      0.00308      0.08944      0.02509      
7800    0.40145    0.13117    0.16946    0.00365      0.09132      0.02929      0.00321      0.08891      0.02599      
7900    0.40018    0.13059    0.16913    0.00517      0.09014      0.02576      0.00582      0.08735      0.02504      
8000    0.38929    0.12715    0.16459    0.00317      0.08990      0.02242      0.00382      0.08646      0.02455      
8100    0.38727    0.12664    0.16409    0.00364      0.08804      0.02433      0.00367      0.08568      0.02355      
8200    0.39896    0.13064    0.16923    0.00437      0.08832      0.03200      0.00460      0.08531      0.02622      
8300    0.39500    0.12931    0.16761    0.00418      0.08689      0.03508      0.00442      0.08411      0.03983      
8400    0.39890    0.13077    0.16949    0.00470      0.08650      0.03722      0.00435      0.08328      0.03262      
8500    0.38021    0.12468    0.16160    0.00392      0.08567      0.02169      0.00347      0.08354      0.02200      
8600    0.37837    0.12417    0.16083    0.00446      0.08426      0.02325      0.00363      0.08159      0.02088      
8700    0.38443    0.12624    0.16359    0.00261      0.08571      0.03145      0.00294      0.08285      0.02485      
8800    0.38873    0.12775    0.16549    0.00336      0.08573      0.03199      0.00368      0.08308      0.03434      
8900    0.39525    0.13020    0.16842    0.00375      0.08830      0.02296      0.00356      0.08580      0.02619      
9000    0.37711    0.12415    0.16072    0.00308      0.08474      0.02207      0.00347      0.08198      0.02095      
9100    0.38019    0.12490    0.16144    0.00440      0.08294      0.03253      0.00411      0.08075      0.03866      
9200    0.38341    0.12630    0.16330    0.00340      0.08587      0.02268      0.00267      0.08386      0.02563      
9300    0.38237    0.12595    0.16248    0.00381      0.08646      0.01836      0.00416      0.08354      0.01833      
9400    0.37121    0.12235    0.15749    0.00492      0.08267      0.01893      0.00386      0.08095      0.02104      
9500    0.37921    0.12495    0.16165    0.00254      0.08336      0.03357      0.00267      0.08077      0.03665      
9600    0.38672    0.12720    0.16495    0.00332      0.08636      0.02448      0.00360      0.08376      0.02274      
9700    0.37514    0.12357    0.16023    0.00283      0.08414      0.02184      0.00291      0.08228      0.01928      
9800    0.37189    0.12238    0.15888    0.00234      0.08371      0.02286      0.00257      0.08177      0.02292      
9900    0.38203    0.12588    0.16313    0.00355      0.08557      0.01947      0.00335      0.08322      0.01955      
10000   0.37680    0.12421    0.16099    0.00311      0.08429      0.02100      0.00368      0.08229      0.02357      
10100   0.37629    0.12410    0.16079    0.00261      0.08302      0.02882      0.00305      0.08100      0.02619      
10200   0.37497    0.12356    0.16030    0.00386      0.08300      0.02125      0.00414      0.08121      0.01937      
10300   0.36861    0.12136    0.15771    0.00279      0.08328      0.01739      0.00294      0.08072      0.01801      
10400   0.36913    0.12160    0.15808    0.00265      0.08303      0.01882      0.00324      0.08057      0.02036      
10500   0.36876    0.12150    0.15785    0.00243      0.08326      0.01858      0.00245      0.08071      0.01694      
10600   0.37315    0.12304    0.15993    0.00332      0.08367      0.01594      0.00373      0.08150      0.01772      
10700   0.37554    0.12375    0.16114    0.00281      0.08266      0.02592      0.00313      0.08012      0.02726      
10800   0.37406    0.12320    0.16065    0.00325      0.08376      0.01596      0.00376      0.08228      0.01632      
10900   0.37513    0.12354    0.16115    0.00311      0.08333      0.02003      0.00374      0.08118      0.02482      
11000   0.37307    0.12297    0.16048    0.00432      0.08164      0.01827      0.00329      0.07950      0.01993      
11100   0.35479    0.11709    0.15240    0.00266      0.07948      0.01584      0.00284      0.07742      0.01610      
11200   0.37083    0.12250    0.15966    0.00331      0.08139      0.01985      0.00336      0.07843      0.01954      
11300   0.37084    0.12261    0.15958    0.00398      0.08122      0.01723      0.00393      0.07800      0.01648      
11400   0.36204    0.11983    0.15568    0.00315      0.08011      0.01632      0.00272      0.07858      0.01723      
11500   0.36052    0.11924    0.15505    0.00231      0.07973      0.02095      0.00220      0.07791      0.02250      
11600   0.35600    0.11787    0.15320    0.00311      0.07875      0.01541      0.00317      0.07699      0.01787      
11700   0.37089    0.12264    0.15932    0.00421      0.07977      0.02477      0.00391      0.07735      0.02404      
11800   0.36271    0.12006    0.15591    0.00270      0.08000      0.02020      0.00318      0.07819      0.02256      
11900   0.35953    0.11883    0.15476    0.00287      0.07962      0.01725      0.00317      0.07753      0.02024      
12000   0.36994    0.12231    0.15930    0.00471      0.07944      0.02090      0.00488      0.07744      0.02285      
12100   0.36705    0.12166    0.15794    0.00356      0.08024      0.01830      0.00289      0.07801      0.02019      
12200   0.36045    0.11950    0.15498    0.00240      0.07951      0.02032      0.00279      0.07744      0.01974      
12300   0.36221    0.12012    0.15587    0.00357      0.07963      0.01511      0.00379      0.07705      0.01682      
12400   0.36505    0.12085    0.15690    0.00274      0.08061      0.01979      0.00333      0.07884      0.02115      
12500   0.36168    0.11986    0.15548    0.00338      0.07874      0.02115      0.00313      0.07618      0.02056      
12600   0.35714    0.11838    0.15352    0.00232      0.07917      0.01873      0.00271      0.07651      0.02021      
12700   0.35646    0.11822    0.15342    0.00342      0.07728      0.02061      0.00351      0.07544      0.01818      
12800   0.35492    0.11777    0.15296    0.00263      0.07870      0.01428      0.00305      0.07713      0.01604      
12900   0.35978    0.11928    0.15514    0.00302      0.07929      0.01525      0.00353      0.07744      0.01708      
13000   0.34750    0.11518    0.15002    0.00263      0.07651      0.01579      0.00293      0.07463      0.01724      
13100   0.35755    0.11840    0.15432    0.00283      0.07905      0.01473      0.00312      0.07702      0.01685      
13200   0.35507    0.11759    0.15310    0.00308      0.07787      0.01718      0.00319      0.07577      0.01754      
13300   0.35333    0.11730    0.15255    0.00254      0.07813      0.01401      0.00299      0.07584      0.01649      
13400   0.35345    0.11709    0.15261    0.00351      0.07736      0.01442      0.00410      0.07532      0.01522      
13500   0.34949    0.11589    0.15071    0.00319      0.07652      0.01597      0.00350      0.07483      0.01897      
13600   0.35048    0.11616    0.15108    0.00265      0.07681      0.01887      0.00276      0.07436      0.01687      
13700   0.34761    0.11501    0.14976    0.00295      0.07633      0.01775      0.00362      0.07449      0.01851      
13800   0.35054    0.11593    0.15112    0.00317      0.07718      0.01570      0.00276      0.07536      0.01813      
13900   0.35981    0.11911    0.15516    0.00348      0.07749      0.02285      0.00424      0.07583      0.01588      
14000   0.35119    0.11594    0.15125    0.00323      0.07763      0.01576      0.00360      0.07560      0.01607      
14100   0.34817    0.11535    0.14987    0.00248      0.07749      0.01494      0.00290      0.07483      0.01731      
14200   0.34377    0.11369    0.14796    0.00321      0.07602      0.01445      0.00329      0.07444      0.01455      
14300   0.34700    0.11456    0.14919    0.00309      0.07574      0.02208      0.00318      0.07385      0.02223      
14400   0.35039    0.11555    0.15073    0.00255      0.07842      0.01575      0.00294      0.07611      0.01781      
14500   0.34384    0.11363    0.14825    0.00264      0.07579      0.01767      0.00304      0.07403      0.01894      
14600   0.34396    0.11374    0.14825    0.00219      0.07620      0.01788      0.00249      0.07410      0.01910      
14700   0.34243    0.11324    0.14768    0.00263      0.07546      0.01709      0.00293      0.07405      0.01835      
14800   0.33909    0.11235    0.14600    0.00234      0.07512      0.01642      0.00268      0.07343      0.01749      
14900   0.34136    0.11292    0.14685    0.00279      0.07544      0.01680      0.00264      0.07428      0.01775      
15000   0.34927    0.11571    0.15049    0.00333      0.07683      0.01454      0.00320      0.07481      0.01524      
15100   0.34348    0.11356    0.14793    0.00270      0.07627      0.01509      0.00253      0.07472      0.01650      
15200   0.34593    0.11433    0.14881    0.00332      0.07614      0.01662      0.00354      0.07458      0.01717      
15300   0.34700    0.11458    0.14936    0.00379      0.07591      0.01677      0.00327      0.07436      0.01692      
15400   0.34039    0.11224    0.14647    0.00290      0.07575      0.01519      0.00307      0.07371      0.01666      
15500   0.34058    0.11224    0.14643    0.00216      0.07643      0.01662      0.00232      0.07499      0.01850      
15600   0.33908    0.11152    0.14573    0.00200      0.07662      0.01603      0.00229      0.07550      0.01737      
15700   0.34010    0.11191    0.14608    0.00268      0.07574      0.01842      0.00307      0.07386      0.01785      
15800   0.33653    0.11059    0.14455    0.00292      0.07512      0.01681      0.00312      0.07374      0.01575      
15900   0.33612    0.11043    0.14437    0.00251      0.07577      0.01522      0.00318      0.07373      0.01631      
16000   0.33348    0.10963    0.14322    0.00269      0.07475      0.01590      0.00301      0.07294      0.01711      
16100   0.33084    0.10875    0.14218    0.00270      0.07415      0.01533      0.00320      0.07250      0.01738      
16200   0.33140    0.10888    0.14234    0.00230      0.07478      0.01550      0.00270      0.07276      0.01620      
16300   0.33229    0.10904    0.14269    0.00257      0.07478      0.01605      0.00287      0.07296      0.01650      
16400   0.33034    0.10854    0.14192    0.00281      0.07424      0.01415      0.00312      0.07291      0.01564      
16500   0.32934    0.10806    0.14143    0.00261      0.07397      0.01639      0.00298      0.07217      0.01707      
16600   0.33242    0.10905    0.14285    0.00325      0.07415      0.01560      0.00379      0.07255      0.01517      
16700   0.32937    0.10795    0.14139    0.00228      0.07440      0.01679      0.00240      0.07250      0.01570      
16800   0.32921    0.10793    0.14124    0.00324      0.07391      0.01450      0.00375      0.07205      0.01528      
16900   0.32547    0.10677    0.13947    0.00253      0.07361      0.01543      0.00304      0.07157      0.01593      
17000   0.32430    0.10618    0.13916    0.00219      0.07384      0.01465      0.00232      0.07168      0.01583      
17100   0.32872    0.10760    0.14090    0.00205      0.07481      0.01680      0.00212      0.07288      0.01732      
17200   0.32317    0.10572    0.13864    0.00198      0.07411      0.01357      0.00223      0.07158      0.01460      
17300   0.32551    0.10626    0.13950    0.00193      0.07499      0.01417      0.00216      0.07329      0.01611      
17400   0.32624    0.10637    0.13969    0.00217      0.07485      0.01577      0.00232      0.07310      0.01499      
17500   0.32552    0.10639    0.13944    0.00245      0.07424      0.01501      0.00258      0.07253      0.01494      
17600   0.31988    0.10445    0.13670    0.00279      0.07276      0.01592      0.00285      0.07079      0.01653      
17700   0.31924    0.10417    0.13637    0.00255      0.07301      0.01567      0.00262      0.07157      0.01611      
17800   0.31687    0.10338    0.13545    0.00234      0.07303      0.01336      0.00250      0.07163      0.01572      
17900   0.31886    0.10377    0.13623    0.00194      0.07388      0.01523      0.00198      0.07244      0.01733      
18000   0.31685    0.10311    0.13516    0.00239      0.07297      0.01611      0.00249      0.07146      0.01714      
18100   0.31408    0.10208    0.13390    0.00219      0.07299      0.01459      0.00229      0.07156      0.01478      
18200   0.31547    0.10257    0.13428    0.00238      0.07281      0.01711      0.00247      0.07105      0.01726      
18300   0.31794    0.10318    0.13546    0.00285      0.07317      0.01646      0.00314      0.07122      0.01717      
18400   0.31366    0.10174    0.13353    0.00286      0.07234      0.01596      0.00282      0.07074      0.01746      
18500   0.31266    0.10122    0.13281    0.00232      0.07319      0.01560      0.00247      0.07147      0.01754      
18600   0.31359    0.10175    0.13313    0.00252      0.07272      0.01736      0.00302      0.07099      0.01610      
18700   0.31259    0.10120    0.13273    0.00263      0.07252      0.01762      0.00291      0.07089      0.01765      
18800   0.30990    0.10034    0.13160    0.00266      0.07221      0.01542      0.00320      0.07045      0.01844      
18900   0.31252    0.10123    0.13269    0.00230      0.07261      0.01842      0.00284      0.07129      0.01914      
19000   0.31085    0.10072    0.13213    0.00247      0.07212      0.01709      0.00262      0.07052      0.01591      
19100   0.30883    0.10010    0.13104    0.00266      0.07200      0.01511      0.00264      0.07052      0.01586      
19200   0.30684    0.09919    0.13024    0.00259      0.07158      0.01621      0.00225      0.06991      0.01774      
19300   0.30810    0.09973    0.13049    0.00251      0.07274      0.01318      0.00265      0.07120      0.01521      
19400   0.30454    0.09859    0.12901    0.00253      0.07161      0.01403      0.00281      0.07018      0.01579      
19500   0.30598    0.09894    0.12967    0.00276      0.07183      0.01388      0.00247      0.07059      0.01496      
19600   0.30550    0.09872    0.12935    0.00221      0.07233      0.01443      0.00236      0.07060      0.01491      
19700   0.30528    0.09852    0.12935    0.00219      0.07267      0.01275      0.00223      0.07053      0.01459      
19800   0.30131    0.09725    0.12770    0.00181      0.07137      0.01595      0.00195      0.06967      0.01783      
19900   0.30497    0.09834    0.12909    0.00173      0.07256      0.01631      0.00173      0.07110      0.01701      
20000   0.30136    0.09701    0.12744    0.00215      0.07202      0.01370      0.00235      0.07046      0.01545      
20100   0.29812    0.09587    0.12602    0.00210      0.07091      0.01605      0.00231      0.06922      0.01640      
20200   0.30147    0.09684    0.12727    0.00208      0.07165      0.01812      0.00202      0.07033      0.02005      
20300   0.29751    0.09544    0.12544    0.00261      0.07120      0.01408      0.00290      0.06985      0.01588      
20400   0.29905    0.09595    0.12601    0.00274      0.07107      0.01639      0.00279      0.06956      0.01767      
20500   0.29780    0.09559    0.12546    0.00245      0.07162      0.01343      0.00246      0.06990      0.01396      
20600   0.29484    0.09449    0.12415    0.00239      0.07114      0.01333      0.00196      0.06937      0.01463      
20700   0.29607    0.09471    0.12435    0.00201      0.07223      0.01385      0.00222      0.07077      0.01564      
20800   0.29055    0.09313    0.12206    0.00235      0.07046      0.01278      0.00251      0.06867      0.01469      
20900   0.29257    0.09363    0.12287    0.00206      0.07091      0.01549      0.00203      0.06921      0.01793      
21000   0.28968    0.09247    0.12152    0.00232      0.07047      0.01446      0.00244      0.06898      0.01631      
21100   0.28961    0.09248    0.12150    0.00221      0.07029      0.01566      0.00221      0.06842      0.01639      
21200   0.29096    0.09272    0.12205    0.00237      0.07052      0.01649      0.00216      0.06905      0.01756      
21300   0.29059    0.09260    0.12179    0.00224      0.07062      0.01659      0.00267      0.06888      0.01757      
21400   0.28987    0.09219    0.12127    0.00202      0.07119      0.01597      0.00229      0.06957      0.01743      
21500   0.28589    0.09099    0.11965    0.00188      0.07051      0.01427      0.00207      0.06911      0.01581      
21600   0.28484    0.09061    0.11914    0.00215      0.07029      0.01327      0.00226      0.06898      0.01436      
21700   0.28443    0.09031    0.11895    0.00232      0.06995      0.01446      0.00268      0.06850      0.01625      
21800   0.28601    0.09074    0.11945    0.00251      0.07006      0.01621      0.00269      0.06861      0.01695      
21900   0.28399    0.09014    0.11860    0.00231      0.07003      0.01454      0.00254      0.06869      0.01648      
22000   0.28182    0.08910    0.11733    0.00214      0.07029      0.01474      0.00245      0.06897      0.01480      
22100   0.28344    0.08988    0.11807    0.00203      0.07060      0.01433      0.00186      0.06905      0.01522      
22200   0.28178    0.08919    0.11745    0.00227      0.06998      0.01448      0.00249      0.06863      0.01485      
22300   0.27990    0.08852    0.11666    0.00244      0.06953      0.01376      0.00266      0.06835      0.01498      
22400   0.28030    0.08873    0.11659    0.00265      0.06980      0.01267      0.00251      0.06868      0.01419      
22500   0.28087    0.08893    0.11675    0.00213      0.07024      0.01418      0.00229      0.06882      0.01304      
22600   0.28141    0.08912    0.11705    0.00256      0.06985      0.01411      0.00279      0.06840      0.01342      
22700   0.27925    0.08853    0.11577    0.00251      0.06998      0.01232      0.00214      0.06843      0.01327      
22800   0.27797    0.08792    0.11525    0.00234      0.06946      0.01502      0.00227      0.06805      0.01731      
22900   0.27590    0.08726    0.11450    0.00250      0.06916      0.01239      0.00252      0.06789      0.01472      
23000   0.27491    0.08676    0.11387    0.00273      0.06903      0.01263      0.00291      0.06754      0.01429      
23100   0.27452    0.08678    0.11364    0.00204      0.06884      0.01609      0.00227      0.06744      0.01796      
23200   0.27485    0.08675    0.11355    0.00195      0.06919      0.01703      0.00224      0.06800      0.01735      
23300   0.27453    0.08656    0.11342    0.00234      0.06952      0.01351      0.00230      0.06812      0.01535      
23400   0.26930    0.08470    0.11126    0.00198      0.06843      0.01460      0.00227      0.06718      0.01450      
23500   0.26793    0.08381    0.11048    0.00173      0.06839      0.01763      0.00180      0.06699      0.01469      
23600   0.26624    0.08369    0.10984    0.00195      0.06812      0.01319      0.00216      0.06684      0.01557      
23700   0.26905    0.08424    0.11104    0.00184      0.06924      0.01345      0.00201      0.06810      0.01498      
23800   0.26580    0.08321    0.10973    0.00218      0.06816      0.01261      0.00254      0.06698      0.01567      
23900   0.26634    0.08331    0.10978    0.00205      0.06845      0.01375      0.00215      0.06726      0.01524      
24000   0.26766    0.08374    0.11013    0.00203      0.06913      0.01319      0.00224      0.06800      0.01451      
24100   0.26489    0.08272    0.10885    0.00181      0.06888      0.01316      0.00203      0.06771      0.01652      
24200   0.26645    0.08309    0.10937    0.00212      0.06859      0.01647      0.00222      0.06736      0.01790      
24300   0.26527    0.08263    0.10907    0.00188      0.06889      0.01396      0.00215      0.06747      0.01565      
24400   0.26519    0.08260    0.10887    0.00217      0.06899      0.01283      0.00220      0.06779      0.01537      
24500   0.26416    0.08222    0.10838    0.00232      0.06871      0.01264      0.00237      0.06742      0.01427      
24600   0.26286    0.08172    0.10775    0.00212      0.06875      0.01262      0.00224      0.06726      0.01498      
24700   0.26314    0.08172    0.10785    0.00201      0.06883      0.01368      0.00229      0.06756      0.01656      
24800   0.26301    0.08162    0.10768    0.00182      0.06932      0.01284      0.00209      0.06767      0.01457      
24900   0.25844    0.08000    0.10580    0.00201      0.06804      0.01298      0.00226      0.06665      0.01508      
25000   0.25957    0.07990    0.10618    0.00196      0.06871      0.01408      0.00198      0.06757      0.01462      
25100   0.25594    0.07895    0.10459    0.00176      0.06793      0.01358      0.00203      0.06692      0.01573      
25200   0.25572    0.07877    0.10427    0.00162      0.06827      0.01391      0.00193      0.06712      0.01566      
25300   0.25570    0.07854    0.10407    0.00194      0.06847      0.01337      0.00212      0.06697      0.01443      
25400   0.25354    0.07794    0.10322    0.00213      0.06801      0.01123      0.00259      0.06662      0.01297      
25500   0.25089    0.07704    0.10199    0.00184      0.06772      0.01148      0.00212      0.06651      0.01386      
25600   0.25026    0.07665    0.10169    0.00190      0.06761      0.01210      0.00227      0.06645      0.01391      
25700   0.25393    0.07770    0.10330    0.00213      0.06796      0.01420      0.00244      0.06693      0.01462      
25800   0.25200    0.07702    0.10244    0.00165      0.06819      0.01350      0.00183      0.06709      0.01576      
25900   0.25008    0.07621    0.10148    0.00196      0.06777      0.01327      0.00218      0.06675      0.01556      
26000   0.24934    0.07605    0.10114    0.00189      0.06797      0.01144      0.00211      0.06691      0.01373      
26100   0.24933    0.07606    0.10104    0.00193      0.06772      0.01292      0.00191      0.06683      0.01499      
26200   0.24836    0.07553    0.10052    0.00207      0.06767      0.01283      0.00239      0.06677      0.01478      
26300   0.24591    0.07484    0.09950    0.00173      0.06717      0.01338      0.00182      0.06644      0.01548      
26400   0.24626    0.07498    0.09966    0.00203      0.06718      0.01199      0.00237      0.06620      0.01381      
26500   0.24516    0.07459    0.09896    0.00176      0.06747      0.01189      0.00199      0.06660      0.01419      
26600   0.24643    0.07503    0.09934    0.00224      0.06759      0.01107      0.00257      0.06653      0.01321      
26700   0.24562    0.07448    0.09895    0.00225      0.06671      0.01614      0.00240      0.06564      0.01803      
26800   0.24345    0.07366    0.09768    0.00190      0.06782      0.01193      0.00216      0.06683      0.01442      
26900   0.24307    0.07375    0.09789    0.00199      0.06732      0.01054      0.00231      0.06644      0.01280      
27000   0.24327    0.07357    0.09785    0.00174      0.06771      0.01199      0.00183      0.06676      0.01398      
27100   0.24098    0.07254    0.09705    0.00187      0.06695      0.01287      0.00204      0.06607      0.01439      
27200   0.23901    0.07187    0.09620    0.00198      0.06675      0.01109      0.00212      0.06581      0.01315      
27300   0.23977    0.07220    0.09641    0.00194      0.06689      0.01162      0.00200      0.06594      0.01387      
27400   0.24072    0.07224    0.09656    0.00220      0.06672      0.01505      0.00249      0.06582      0.01574      
27500   0.23762    0.07119    0.09531    0.00191      0.06678      0.01216      0.00235      0.06590      0.01442      
27600   0.23733    0.07105    0.09486    0.00197      0.06688      0.01292      0.00199      0.06591      0.01424      
27700   0.23706    0.07097    0.09485    0.00198      0.06680      0.01234      0.00231      0.06572      0.01469      
27800   0.23690    0.07087    0.09466    0.00193      0.06728      0.01085      0.00195      0.06649      0.01341      
27900   0.23533    0.07031    0.09387    0.00189      0.06695      0.01157      0.00202      0.06599      0.01420      
28000   0.23472    0.07008    0.09351    0.00174      0.06701      0.01187      0.00202      0.06616      0.01358      
28100   0.23374    0.06959    0.09299    0.00227      0.06652      0.01188      0.00215      0.06556      0.01443      
28200   0.23387    0.06952    0.09303    0.00168      0.06684      0.01392      0.00189      0.06578      0.01659      
28300   0.23092    0.06839    0.09183    0.00168      0.06658      0.01224      0.00199      0.06554      0.01524      
28400   0.23106    0.06814    0.09176    0.00185      0.06706      0.01125      0.00210      0.06585      0.01345      
28500   0.23014    0.06773    0.09120    0.00190      0.06691      0.01198      0.00213      0.06586      0.01445      
28600   0.22902    0.06738    0.09079    0.00160      0.06704      0.01107      0.00184      0.06605      0.01335      
28700   0.22962    0.06758    0.09087    0.00164      0.06702      0.01257      0.00194      0.06607      0.01453      
28800   0.22816    0.06704    0.09030    0.00191      0.06649      0.01209      0.00217      0.06546      0.01501      
28900   0.22763    0.06690    0.08995    0.00195      0.06642      0.01204      0.00238      0.06551      0.01471      
29000   0.22884    0.06714    0.09022    0.00182      0.06674      0.01460      0.00209      0.06571      0.01698      
29100   0.22726    0.06682    0.08980    0.00179      0.06652      0.01164      0.00202      0.06556      0.01457      
29200   0.22727    0.06684    0.08975    0.00250      0.06584      0.01168      0.00229      0.06478      0.01383      
29300   0.22617    0.06619    0.08885    0.00193      0.06635      0.01424      0.00213      0.06521      0.01660      
29400   0.22417    0.06569    0.08818    0.00166      0.06621      0.01219      0.00202      0.06521      0.01342      
29500   0.22255    0.06509    0.08749    0.00159      0.06613      0.01125      0.00181      0.06513      0.01339      
29600   0.22422    0.06562    0.08799    0.00173      0.06651      0.01183      0.00187      0.06559      0.01351      
29700   0.22368    0.06524    0.08771    0.00193      0.06623      0.01287      0.00197      0.06516      0.01546      
29800   0.22279    0.06520    0.08741    0.00176      0.06599      0.01214      0.00187      0.06517      0.01415      
29900   0.22144    0.06447    0.08683    0.00179      0.06596      0.01192      0.00216      0.06524      0.01395      
30000   0.22094    0.06444    0.08662    0.00199      0.06568      0.01105      0.00220      0.06485      0.01345      
30100   0.22267    0.06500    0.08735    0.00182      0.06623      0.01127      0.00195      0.06513      0.01409      
30200   0.21986    0.06419    0.08619    0.00179      0.06539      0.01154      0.00198      0.06449      0.01378      
30300   0.21968    0.06411    0.08604    0.00175      0.06570      0.01038      0.00192      0.06480      0.01276      
30400   0.21981    0.06404    0.08600    0.00171      0.06561      0.01220      0.00171      0.06458      0.01532      
30500   0.22000    0.06403    0.08593    0.00178      0.06581      0.01228      0.00201      0.06480      0.01463      
30600   0.21891    0.06368    0.08547    0.00175      0.06592      0.01041      0.00191      0.06491      0.01297      
30700   0.21982    0.06391    0.08580    0.00209      0.06579      0.01121      0.00204      0.06494      0.01354      
30800   0.21901    0.06368    0.08538    0.00193      0.06599      0.01015      0.00219      0.06511      0.01229      
30900   0.21845    0.06345    0.08499    0.00171      0.06583      0.01229      0.00190      0.06490      0.01454      
31000   0.21706    0.06297    0.08451    0.00171      0.06573      0.01071      0.00199      0.06492      0.01299      
31100   0.21807    0.06308    0.08487    0.00201      0.06580      0.01159      0.00211      0.06487      0.01421      
31200   0.21690    0.06254    0.08434    0.00188      0.06599      0.01078      0.00208      0.06494      0.01308      
31300   0.21680    0.06276    0.08430    0.00188      0.06573      0.01061      0.00205      0.06474      0.01243      
31400   0.21711    0.06281    0.08435    0.00211      0.06538      0.01228      0.00224      0.06426      0.01446      
31500   0.21719    0.06282    0.08446    0.00204      0.06581      0.01030      0.00216      0.06474      0.01235      
31600   0.21630    0.06250    0.08379    0.00199      0.06579      0.01109      0.00221      0.06459      0.01333      
31700   0.21665    0.06254    0.08403    0.00185      0.06583      0.01196      0.00204      0.06456      0.01304      
31800   0.21529    0.06198    0.08358    0.00171      0.06578      0.01124      0.00187      0.06463      0.01317      
31900   0.21579    0.06204    0.08345    0.00198      0.06592      0.01198      0.00186      0.06458      0.01397      
32000   0.21623    0.06224    0.08364    0.00195      0.06623      0.01086      0.00205      0.06513      0.01311      
32100   0.21530    0.06172    0.08310    0.00176      0.06646      0.01130      0.00200      0.06548      0.01351      
32200   0.21475    0.06124    0.08291    0.00170      0.06648      0.01205      0.00176      0.06530      0.01466      
32300   0.21309    0.06077    0.08227    0.00192      0.06574      0.01189      0.00206      0.06474      0.01321      
32400   0.21076    0.06014    0.08134    0.00177      0.06535      0.01077      0.00192      0.06434      0.01289      
32500   0.21316    0.06075    0.08233    0.00212      0.06569      0.01135      0.00211      0.06478      0.01373      
32600   0.21318    0.06076    0.08229    0.00207      0.06571      0.01172      0.00235      0.06453      0.01272      
32700   0.21069    0.05985    0.08121    0.00179      0.06558      0.01134      0.00204      0.06451      0.01373      
32800   0.21062    0.05977    0.08098    0.00163      0.06553      0.01358      0.00188      0.06444      0.01436      
32900   0.21049    0.05977    0.08090    0.00160      0.06570      0.01264      0.00176      0.06451      0.01414      
33000   0.20964    0.05963    0.08050    0.00171      0.06525      0.01280      0.00202      0.06429      0.01510      
33100   0.20918    0.05945    0.08029    0.00191      0.06521      0.01156      0.00208      0.06430      0.01430      
33200   0.20807    0.05881    0.07970    0.00167      0.06551      0.01188      0.00181      0.06446      0.01345      
33300   0.20683    0.05835    0.07926    0.00173      0.06533      0.01082      0.00197      0.06438      0.01262      
33400   0.20791    0.05883    0.07957    0.00155      0.06556      0.01199      0.00182      0.06456      0.01417      
33500   0.20802    0.05894    0.07949    0.00163      0.06560      0.01179      0.00195      0.06458      0.01458      
33600   0.20734    0.05872    0.07932    0.00165      0.06527      0.01191      0.00173      0.06433      0.01380      
33700   0.20697    0.05854    0.07909    0.00208      0.06500      0.01133      0.00203      0.06405      0.01370      
33800   0.20759    0.05865    0.07904    0.00177      0.06582      0.01152      0.00177      0.06474      0.01435      
33900   0.20629    0.05826    0.07855    0.00137      0.06586      0.01129      0.00157      0.06500      0.01388      
34000   0.20711    0.05854    0.07885    0.00159      0.06598      0.01083      0.00183      0.06488      0.01286      
34100   0.20606    0.05809    0.07841    0.00161      0.06582      0.01066      0.00187      0.06491      0.01299      
34200   0.20520    0.05785    0.07797    0.00155      0.06558      0.01127      0.00177      0.06461      0.01292      
34300   0.20564    0.05777    0.07804    0.00154      0.06565      0.01320      0.00175      0.06463      0.01536      
34400   0.20406    0.05731    0.07750    0.00168      0.06531      0.01132      0.00187      0.06441      0.01276      
34500   0.20423    0.05742    0.07759    0.00168      0.06531      0.01116      0.00201      0.06440      0.01322      
34600   0.20396    0.05735    0.07729    0.00182      0.06542      0.01041      0.00203      0.06454      0.01197      
34700   0.20452    0.05750    0.07752    0.00168      0.06568      0.01068      0.00197      0.06491      0.01283      
34800   0.20309    0.05679    0.07688    0.00163      0.06552      0.01134      0.00191      0.06465      0.01341      
34900   0.20347    0.05682    0.07699    0.00155      0.06589      0.01114      0.00178      0.06508      0.01365      
35000   0.20283    0.05666    0.07682    0.00177      0.06550      0.01045      0.00192      0.06481      0.01274      
35100   0.20048    0.05592    0.07571    0.00164      0.06516      0.01026      0.00189      0.06428      0.01280      
35200   0.20203    0.05640    0.07636    0.00154      0.06531      0.01205      0.00173      0.06446      0.01409      
35300   0.20142    0.05629    0.07610    0.00168      0.06535      0.00999      0.00190      0.06435      0.01221      
35400   0.20192    0.05625    0.07622    0.00164      0.06551      0.01144      0.00184      0.06465      0.01429      
35500   0.20108    0.05605    0.07601    0.00179      0.06488      0.01178      0.00216      0.06385      0.01383      
35600   0.20175    0.05613    0.07619    0.00178      0.06508      0.01282      0.00196      0.06416      0.01275      
35700   0.19909    0.05503    0.07499    0.00177      0.06503      0.01136      0.00205      0.06409      0.01261      
35800   0.19875    0.05495    0.07485    0.00174      0.06495      0.01131      0.00189      0.06403      0.01306      
35900   0.19800    0.05479    0.07459    0.00157      0.06496      0.01049      0.00179      0.06424      0.01299      
36000   0.19769    0.05459    0.07423    0.00182      0.06505      0.01007      0.00194      0.06417      0.01202      
36100   0.19778    0.05468    0.07438    0.00170      0.06474      0.01143      0.00192      0.06394      0.01363      
36200   0.19828    0.05485    0.07463    0.00178      0.06488      0.01072      0.00206      0.06420      0.01235      
36300   0.19779    0.05464    0.07427    0.00152      0.06512      0.01121      0.00177      0.06401      0.01191      
36400   0.19735    0.05422    0.07395    0.00198      0.06511      0.01044      0.00182      0.06423      0.01189      
36500   0.19757    0.05460    0.07423    0.00204      0.06472      0.00990      0.00214      0.06386      0.01193      
36600   0.19624    0.05417    0.07363    0.00172      0.06449      0.01119      0.00186      0.06360      0.01311      
36700   0.19616    0.05414    0.07356    0.00168      0.06477      0.01002      0.00171      0.06378      0.01228      
36800   0.19618    0.05419    0.07359    0.00170      0.06474      0.00977      0.00199      0.06374      0.01194      
36900   0.19644    0.05413    0.07382    0.00153      0.06466      0.01149      0.00171      0.06366      0.01384      
37000   0.19496    0.05356    0.07295    0.00144      0.06495      0.01031      0.00166      0.06405      0.01263      
37100   0.19477    0.05355    0.07288    0.00151      0.06485      0.00987      0.00171      0.06389      0.01181      
37200   0.19549    0.05373    0.07302    0.00163      0.06496      0.01073      0.00193      0.06410      0.01291      
37300   0.19387    0.05317    0.07256    0.00151      0.06453      0.01047      0.00176      0.06337      0.01286      
37400   0.19414    0.05318    0.07252    0.00181      0.06449      0.01071      0.00190      0.06357      0.01289      
37500   0.19345    0.05272    0.07226    0.00151      0.06462      0.01166      0.00162      0.06368      0.01427      
37600   0.19249    0.05266    0.07187    0.00157      0.06449      0.00951      0.00176      0.06359      0.01190      
37700   0.19365    0.05295    0.07219    0.00171      0.06456      0.01119      0.00195      0.06361      0.01362      
37800   0.19338    0.05266    0.07197    0.00186      0.06478      0.01053      0.00194      0.06370      0.01224      
37900   0.19248    0.05250    0.07158    0.00165      0.06471      0.01022      0.00170      0.06361      0.01203      
38000   0.19122    0.05205    0.07101    0.00169      0.06447      0.01000      0.00182      0.06347      0.01208      
38100   0.19193    0.05205    0.07142    0.00199      0.06445      0.01009      0.00207      0.06361      0.01245      
38200   0.19037    0.05167    0.07072    0.00168      0.06424      0.01033      0.00180      0.06339      0.01265      
38300   0.19109    0.05165    0.07092    0.00190      0.06446      0.01082      0.00214      0.06353      0.01326      
38400   0.18982    0.05124    0.07032    0.00182      0.06431      0.01065      0.00188      0.06349      0.01231      
38500   0.18970    0.05099    0.07026    0.00154      0.06454      0.01185      0.00165      0.06344      0.01423      
38600   0.18875    0.05076    0.06987    0.00153      0.06425      0.01171      0.00173      0.06337      0.01353      
38700   0.18809    0.05051    0.06959    0.00176      0.06423      0.00996      0.00206      0.06321      0.01188      
38800   0.18779    0.05033    0.06945    0.00162      0.06419      0.01095      0.00177      0.06302      0.01292      
38900   0.18706    0.05003    0.06914    0.00162      0.06421      0.01030      0.00181      0.06321      0.01209      
39000   0.18719    0.05026    0.06909    0.00168      0.06409      0.01036      0.00187      0.06310      0.01265      
39100   0.18749    0.05031    0.06910    0.00154      0.06438      0.01079      0.00181      0.06355      0.01269      
39200   0.18813    0.05047    0.06929    0.00189      0.06449      0.00994      0.00216      0.06341      0.01237      
39300   0.18809    0.05025    0.06919    0.00168      0.06464      0.01169      0.00180      0.06365      0.01285      
39400   0.18659    0.04975    0.06872    0.00175      0.06428      0.01047      0.00203      0.06338      0.01243      
39500   0.18566    0.04950    0.06835    0.00133      0.06426      0.01111      0.00148      0.06327      0.01367      
39600   0.18557    0.04923    0.06811    0.00177      0.06446      0.01001      0.00206      0.06331      0.01221      
39700   0.18572    0.04913    0.06820    0.00174      0.06447      0.01089      0.00194      0.06353      0.01342      
39800   0.18427    0.04850    0.06739    0.00173      0.06445      0.01096      0.00197      0.06340      0.01266      
39900   0.18456    0.04882    0.06768    0.00155      0.06425      0.01128      0.00172      0.06329      0.01334      
40000   0.18448    0.04883    0.06757    0.00163      0.06412      0.01168      0.00180      0.06322      0.01374      
40100   0.18410    0.04876    0.06738    0.00165      0.06430      0.01008      0.00181      0.06342      0.01231      
40200   0.18467    0.04905    0.06764    0.00138      0.06440      0.01104      0.00157      0.06342      0.01284      
40300   0.18405    0.04862    0.06737    0.00176      0.06429      0.01001      0.00192      0.06330      0.01236      
40400   0.18369    0.04854    0.06700    0.00161      0.06446      0.01038      0.00185      0.06347      0.01218      
40500   0.18333    0.04849    0.06695    0.00153      0.06424      0.01060      0.00181      0.06337      0.01287      
40600   0.18396    0.04843    0.06710    0.00176      0.06451      0.01082      0.00202      0.06348      0.01273      
40700   0.18361    0.04859    0.06710    0.00154      0.06415      0.01109      0.00177      0.06324      0.01240      
40800   0.18446    0.04875    0.06747    0.00149      0.06452      0.01115      0.00163      0.06356      0.01299      
40900   0.18326    0.04842    0.06690    0.00157      0.06424      0.01068      0.00166      0.06321      0.01293      
41000   0.18317    0.04839    0.06688    0.00152      0.06412      0.01129      0.00170      0.06307      0.01412      
41100   0.18279    0.04828    0.06675    0.00159      0.06407      0.01051      0.00182      0.06302      0.01264      
41200   0.18154    0.04774    0.06620    0.00169      0.06387      0.01019      0.00187      0.06282      0.01223      
41300   0.18103    0.04743    0.06586    0.00161      0.06387      0.01126      0.00185      0.06292      0.01248      
41400   0.18115    0.04738    0.06594    0.00154      0.06427      0.01012      0.00158      0.06322      0.01227      
41500   0.18146    0.04737    0.06592    0.00151      0.06460      0.01028      0.00170      0.06352      0.01235      
41600   0.18021    0.04694    0.06535    0.00156      0.06395      0.01205      0.00177      0.06289      0.01456      
41700   0.17950    0.04670    0.06512    0.00167      0.06402      0.00990      0.00186      0.06284      0.01191      
41800   0.18057    0.04709    0.06557    0.00184      0.06393      0.01071      0.00211      0.06298      0.01279      
41900   0.17994    0.04688    0.06512    0.00156      0.06433      0.01024      0.00172      0.06346      0.01205      
42000   0.17903    0.04655    0.06478    0.00160      0.06400      0.01052      0.00182      0.06302      0.01276      
42100   0.17891    0.04656    0.06466    0.00162      0.06394      0.01063      0.00180      0.06292      0.01274      
42200   0.17895    0.04643    0.06458    0.00177      0.06407      0.01052      0.00175      0.06307      0.01253      
42300   0.17809    0.04626    0.06431    0.00171      0.06387      0.00966      0.00195      0.06286      0.01187      
42400   0.17772    0.04583    0.06407    0.00175      0.06406      0.01004      0.00177      0.06294      0.01249      
42500   0.17735    0.04578    0.06389    0.00153      0.06396      0.01091      0.00178      0.06303      0.01232      
42600   0.17700    0.04565    0.06370    0.00182      0.06368      0.01076      0.00201      0.06273      0.01304      
42700   0.17636    0.04542    0.06348    0.00178      0.06358      0.01049      0.00192      0.06264      0.01269      
42800   0.17611    0.04526    0.06330    0.00172      0.06363      0.01095      0.00197      0.06264      0.01302      
42900   0.17599    0.04517    0.06326    0.00149      0.06379      0.01146      0.00177      0.06273      0.01346      
43000   0.17491    0.04488    0.06275    0.00153      0.06362      0.01063      0.00176      0.06264      0.01240      
43100   0.17519    0.04484    0.06271    0.00173      0.06384      0.01031      0.00169      0.06288      0.01229      
43200   0.17517    0.04474    0.06268    0.00158      0.06394      0.01113      0.00167      0.06304      0.01313      
43300   0.17483    0.04471    0.06259    0.00181      0.06367      0.01025      0.00202      0.06267      0.01200      
43400   0.17417    0.04445    0.06234    0.00158      0.06369      0.01055      0.00165      0.06270      0.01202      
43500   0.17308    0.04392    0.06188    0.00157      0.06348      0.01113      0.00173      0.06254      0.01321      
43600   0.17325    0.04399    0.06185    0.00156      0.06372      0.01064      0.00163      0.06286      0.01250      
43700   0.17323    0.04406    0.06188    0.00149      0.06376      0.01016      0.00155      0.06280      0.01238      
43800   0.17353    0.04417    0.06196    0.00150      0.06351      0.01198      0.00168      0.06260      0.01420      
43900   0.17278    0.04400    0.06155    0.00162      0.06357      0.01018      0.00180      0.06275      0.01226      
44000   0.17243    0.04378    0.06151    0.00153      0.06359      0.01005      0.00171      0.06256      0.01203      
44100   0.17138    0.04335    0.06099    0.00151      0.06346      0.01038      0.00172      0.06240      0.01237      
44200   0.17144    0.04335    0.06095    0.00147      0.06353      0.01067      0.00171      0.06254      0.01200      
44300   0.17112    0.04304    0.06079    0.00149      0.06372      0.01042      0.00162      0.06275      0.01244      
44400   0.17146    0.04328    0.06098    0.00142      0.06364      0.01070      0.00164      0.06271      0.01232      
44500   0.17123    0.04312    0.06074    0.00164      0.06352      0.01109      0.00182      0.06255      0.01220      
44600   0.17089    0.04303    0.06068    0.00150      0.06362      0.01030      0.00170      0.06263      0.01222      
44700   0.17043    0.04272    0.06050    0.00169      0.06354      0.00990      0.00172      0.06256      0.01171      
44800   0.16996    0.04275    0.06022    0.00149      0.06349      0.01004      0.00172      0.06264      0.01218      
44900   0.16951    0.04254    0.06004    0.00142      0.06349      0.01012      0.00158      0.06264      0.01193      
45000   0.17003    0.04262    0.06016    0.00136      0.06368      0.01100      0.00150      0.06273      0.01236      
45100   0.16979    0.04268    0.06018    0.00160      0.06343      0.00950      0.00177      0.06246      0.01118      
45200   0.16993    0.04262    0.06012    0.00156      0.06368      0.00977      0.00166      0.06282      0.01131      
45300   0.17001    0.04262    0.06013    0.00127      0.06379      0.01102      0.00143      0.06274      0.01295      
45400   0.16956    0.04245    0.05984    0.00132      0.06386      0.01040      0.00150      0.06287      0.01216      
45500   0.16951    0.04246    0.05992    0.00162      0.06351      0.00996      0.00169      0.06268      0.01158      
45600   0.16898    0.04225    0.05973    0.00146      0.06350      0.01019      0.00163      0.06267      0.01193      
45700   0.16930    0.04226    0.05981    0.00153      0.06342      0.01142      0.00180      0.06262      0.01322      
45800   0.16930    0.04229    0.05981    0.00174      0.06346      0.00999      0.00183      0.06261      0.01209      
45900   0.16837    0.04210    0.05946    0.00158      0.06322      0.01001      0.00177      0.06234      0.01161      
46000   0.16816    0.04184    0.05926    0.00159      0.06346      0.01001      0.00174      0.06256      0.01199      
46100   0.16769    0.04173    0.05901    0.00160      0.06339      0.00978      0.00183      0.06255      0.01156      
46200   0.16809    0.04202    0.05920    0.00160      0.06325      0.01008      0.00180      0.06240      0.01193      
46300   0.16915    0.04231    0.05960    0.00158      0.06344      0.01109      0.00172      0.06247      0.01316      
46400   0.16887    0.04232    0.05952    0.00166      0.06336      0.01002      0.00191      0.06238      0.01187      
46500   0.16776    0.04184    0.05909    0.00150      0.06328      0.01021      0.00172      0.06236      0.01178      
46600   0.16840    0.04188    0.05917    0.00172      0.06337      0.01133      0.00201      0.06232      0.01226      
46700   0.16803    0.04202    0.05912    0.00162      0.06321      0.01026      0.00180      0.06225      0.01249      
46800   0.16853    0.04198    0.05916    0.00162      0.06348      0.01146      0.00178      0.06254      0.01364      
46900   0.16833    0.04213    0.05913    0.00159      0.06332      0.01076      0.00153      0.06234      0.01226      
47000   0.16821    0.04220    0.05905    0.00165      0.06323      0.01035      0.00185      0.06242      0.01253      
47100   0.16843    0.04212    0.05907    0.00140      0.06381      0.01013      0.00167      0.06301      0.01217      
47200   0.16795    0.04179    0.05886    0.00163      0.06353      0.01073      0.00180      0.06271      0.01251      
47300   0.16697    0.04144    0.05846    0.00167      0.06336      0.01016      0.00178      0.06251      0.01189      
47400   0.16694    0.04143    0.05842    0.00153      0.06338      0.01099      0.00169      0.06247      0.01248      
47500   0.16578    0.04088    0.05793    0.00153      0.06337      0.01034      0.00164      0.06257      0.01253      
47600   0.16558    0.04086    0.05795    0.00152      0.06321      0.01017      0.00171      0.06239      0.01224      
47700   0.16600    0.04091    0.05803    0.00152      0.06327      0.01141      0.00175      0.06238      0.01310      
47800   0.16593    0.04093    0.05798    0.00167      0.06328      0.01034      0.00186      0.06238      0.01252      
47900   0.16667    0.04111    0.05817    0.00173      0.06356      0.01050      0.00184      0.06278      0.01232      
48000   0.16616    0.04112    0.05807    0.00159      0.06326      0.01056      0.00176      0.06244      0.01198      
48100   0.16600    0.04105    0.05794    0.00144      0.06345      0.01058      0.00164      0.06268      0.01287      
48200   0.16560    0.04090    0.05778    0.00153      0.06326      0.01068      0.00167      0.06243      0.01299      
48300   0.16546    0.04076    0.05768    0.00177      0.06325      0.01007      0.00201      0.06241      0.01184      
48400   0.16496    0.04055    0.05746    0.00155      0.06343      0.00985      0.00183      0.06256      0.01205      
48500   0.16480    0.04029    0.05727    0.00161      0.06324      0.01190      0.00172      0.06244      0.01224      
48600   0.16435    0.04016    0.05716    0.00158      0.06336      0.01040      0.00178      0.06261      0.01201      
48700   0.16374    0.03995    0.05690    0.00149      0.06339      0.01002      0.00168      0.06251      0.01202      
48800   0.16280    0.03955    0.05646    0.00162      0.06313      0.01025      0.00192      0.06242      0.01241      
48900   0.16333    0.03975    0.05669    0.00152      0.06338      0.00997      0.00168      0.06258      0.01229      
49000   0.16269    0.03963    0.05645    0.00151      0.06317      0.00962      0.00167      0.06233      0.01165      
49100   0.16301    0.03967    0.05657    0.00148      0.06334      0.00971      0.00156      0.06254      0.01192      
49200   0.16311    0.03963    0.05661    0.00161      0.06319      0.01033      0.00180      0.06228      0.01252      
49300   0.16290    0.03956    0.05649    0.00140      0.06333      0.01061      0.00159      0.06254      0.01259      
49400   0.16241    0.03961    0.05634    0.00150      0.06297      0.00994      0.00170      0.06220      0.01213      
49500   0.16284    0.03978    0.05645    0.00147      0.06310      0.01017      0.00170      0.06234      0.01208      
49600   0.16315    0.03973    0.05637    0.00151      0.06346      0.01038      0.00176      0.06260      0.01250      
49700   0.16233    0.03938    0.05615    0.00149      0.06322      0.01045      0.00158      0.06227      0.01246      
49800   0.16231    0.03942    0.05620    0.00153      0.06304      0.01061      0.00178      0.06212      0.01279      
49900   0.16231    0.03933    0.05617    0.00143      0.06325      0.01058      0.00162      0.06229      0.01284      
50000   0.16212    0.03925    0.05598    0.00172      0.06307      0.01047      0.00173      0.06235      0.01277      
50100   0.16222    0.03946    0.05613    0.00146      0.06308      0.01042      0.00168      0.06233      0.01259      
50200   0.16193    0.03947    0.05597    0.00156      0.06287      0.01026      0.00176      0.06206      0.01237      
50300   0.16172    0.03938    0.05588    0.00149      0.06287      0.01053      0.00153      0.06212      0.01292      
50400   0.16095    0.03903    0.05548    0.00158      0.06281      0.01024      0.00156      0.06206      0.01289      
50500   0.16121    0.03910    0.05563    0.00141      0.06307      0.01001      0.00157      0.06231      0.01218      
50600   0.16094    0.03904    0.05550    0.00164      0.06273      0.01017      0.00179      0.06196      0.01241      
50700   0.16146    0.03916    0.05564    0.00153      0.06298      0.01070      0.00163      0.06222      0.01321      
50800   0.16080    0.03915    0.05532    0.00140      0.06289      0.01018      0.00159      0.06207      0.01247      
50900   0.16168    0.03940    0.05568    0.00165      0.06290      0.01023      0.00155      0.06211      0.01268      
51000   0.16137    0.03928    0.05562    0.00144      0.06282      0.01107      0.00159      0.06206      0.01305      
51100   0.16199    0.03947    0.05583    0.00147      0.06310      0.01061      0.00159      0.06218      0.01300      
51200   0.16122    0.03944    0.05555    0.00140      0.06278      0.01020      0.00156      0.06198      0.01244      
51300   0.16142    0.03938    0.05563    0.00149      0.06287      0.01027      0.00157      0.06204      0.01254      
51400   0.16158    0.03956    0.05568    0.00157      0.06277      0.01003      0.00166      0.06198      0.01173      
51500   0.16105    0.03907    0.05527    0.00156      0.06304      0.01053      0.00165      0.06215      0.01292      
51600   0.16024    0.03884    0.05507    0.00153      0.06279      0.01001      0.00167      0.06194      0.01218      
51700   0.15940    0.03851    0.05476    0.00141      0.06270      0.01013      0.00161      0.06177      0.01227      
51800   0.15966    0.03847    0.05477    0.00153      0.06282      0.01034      0.00166      0.06189      0.01255      
51900   0.15913    0.03824    0.05456    0.00154      0.06256      0.01113      0.00176      0.06169      0.01313      
52000   0.15923    0.03833    0.05459    0.00156      0.06259      0.01077      0.00176      0.06157      0.01287      
52100   0.15907    0.03820    0.05444    0.00173      0.06262      0.01043      0.00203      0.06166      0.01237      
52200   0.15955    0.03844    0.05468    0.00141      0.06280      0.01113      0.00161      0.06189      0.01335      
52300   0.15933    0.03851    0.05461    0.00160      0.06259      0.01015      0.00178      0.06179      0.01236      
52400   0.15912    0.03826    0.05448    0.00133      0.06280      0.01130      0.00151      0.06199      0.01369      
52500   0.15854    0.03805    0.05433    0.00153      0.06264      0.00993      0.00171      0.06176      0.01210      
52600   0.15883    0.03813    0.05437    0.00155      0.06281      0.00986      0.00178      0.06195      0.01208      
52700   0.15812    0.03789    0.05410    0.00143      0.06261      0.01044      0.00169      0.06180      0.01259      
52800   0.15822    0.03798    0.05407    0.00150      0.06269      0.00987      0.00172      0.06182      0.01194      
52900   0.15800    0.03783    0.05395    0.00144      0.06284      0.00973      0.00166      0.06198      0.01189      
53000   0.15806    0.03777    0.05386    0.00170      0.06261      0.01064      0.00192      0.06174      0.01297      
53100   0.15792    0.03775    0.05385    0.00150      0.06273      0.01044      0.00167      0.06192      0.01270      
53200   0.15831    0.03779    0.05391    0.00187      0.06277      0.00979      0.00208      0.06194      0.01195      
53300   0.15756    0.03763    0.05367    0.00153      0.06277      0.00981      0.00178      0.06195      0.01208      
53400   0.15779    0.03774    0.05375    0.00161      0.06264      0.01028      0.00173      0.06181      0.01247      
53500   0.15789    0.03784    0.05384    0.00151      0.06254      0.01079      0.00174      0.06164      0.01274      
53600   0.15747    0.03765    0.05369    0.00139      0.06249      0.01121      0.00164      0.06164      0.01360      
53700   0.15736    0.03750    0.05360    0.00152      0.06270      0.01016      0.00170      0.06188      0.01257      
53800   0.15735    0.03740    0.05354    0.00148      0.06272      0.01102      0.00163      0.06190      0.01271      
53900   0.15639    0.03720    0.05327    0.00147      0.06240      0.01024      0.00169      0.06166      0.01202      
54000   0.15713    0.03750    0.05350    0.00146      0.06264      0.01012      0.00153      0.06189      0.01192      
54100   0.15654    0.03732    0.05330    0.00146      0.06246      0.00997      0.00168      0.06170      0.01193      
54200   0.15693    0.03743    0.05336    0.00150      0.06249      0.01074      0.00172      0.06169      0.01303      
54300   0.15732    0.03767    0.05356    0.00138      0.06267      0.01019      0.00158      0.06196      0.01204      
54400   0.15759    0.03773    0.05377    0.00140      0.06256      0.01063      0.00157      0.06179      0.01286      
54500   0.15750    0.03761    0.05360    0.00142      0.06272      0.01078      0.00162      0.06202      0.01310      
54600   0.15748    0.03777    0.05369    0.00135      0.06263      0.01015      0.00158      0.06193      0.01235      
54700   0.15705    0.03740    0.05344    0.00145      0.06259      0.01086      0.00171      0.06181      0.01308      
54800   0.15715    0.03762    0.05358    0.00141      0.06251      0.01021      0.00162      0.06179      0.01238      
54900   0.15649    0.03726    0.05323    0.00140      0.06254      0.01025      0.00159      0.06177      0.01257      
55000   0.15677    0.03730    0.05337    0.00158      0.06256      0.00980      0.00177      0.06184      0.01172      
55100   0.15622    0.03699    0.05305    0.00156      0.06265      0.00979      0.00167      0.06188      0.01192      
55200   0.15626    0.03711    0.05305    0.00146      0.06252      0.01059      0.00166      0.06180      0.01220      
55300   0.15678    0.03743    0.05334    0.00141      0.06260      0.01001      0.00163      0.06187      0.01200      
55400   0.15671    0.03727    0.05328    0.00162      0.06252      0.01006      0.00181      0.06179      0.01186      
55500   0.15658    0.03708    0.05310    0.00141      0.06274      0.01129      0.00170      0.06203      0.01276      
55600   0.15661    0.03742    0.05316    0.00145      0.06258      0.01006      0.00166      0.06183      0.01221      
55700   0.15625    0.03721    0.05304    0.00145      0.06260      0.00971      0.00167      0.06185      0.01170      
55800   0.15612    0.03714    0.05295    0.00143      0.06252      0.01043      0.00171      0.06183      0.01211      
55900   0.15645    0.03732    0.05310    0.00158      0.06244      0.01005      0.00182      0.06174      0.01225      
56000   0.15601    0.03699    0.05290    0.00150      0.06261      0.01008      0.00171      0.06192      0.01171      
56100   0.15586    0.03699    0.05287    0.00155      0.06251      0.00972      0.00182      0.06183      0.01168      
56200   0.15614    0.03713    0.05293    0.00164      0.06242      0.01010      0.00198      0.06177      0.01223      
56300   0.15614    0.03712    0.05290    0.00141      0.06249      0.01112      0.00170      0.06176      0.01249      
56400   0.15579    0.03692    0.05278    0.00150      0.06260      0.00994      0.00163      0.06188      0.01194      
56500   0.15544    0.03685    0.05268    0.00153      0.06247      0.00953      0.00173      0.06172      0.01148      
56600   0.15527    0.03668    0.05250    0.00136      0.06269      0.01025      0.00156      0.06197      0.01224      
56700   0.15511    0.03656    0.05243    0.00150      0.06269      0.00967      0.00157      0.06196      0.01186      
56800   0.15490    0.03622    0.05223    0.00142      0.06281      0.01109      0.00155      0.06206      0.01313      
56900   0.15510    0.03651    0.05236    0.00136      0.06270      0.01090      0.00153      0.06199      0.01318      
57000   0.15500    0.03647    0.05230    0.00147      0.06280      0.00985      0.00170      0.06213      0.01200      
57100   0.15492    0.03638    0.05227    0.00132      0.06289      0.01027      0.00155      0.06222      0.01208      
57200   0.15496    0.03651    0.05233    0.00149      0.06275      0.00943      0.00168      0.06208      0.01152      
57300   0.15461    0.03633    0.05224    0.00145      0.06254      0.01023      0.00173      0.06186      0.01235      
57400   0.15423    0.03614    0.05207    0.00157      0.06252      0.00963      0.00169      0.06171      0.01191      
57500   0.15349    0.03591    0.05180    0.00146      0.06241      0.00950      0.00166      0.06171      0.01156      
57600   0.15358    0.03596    0.05187    0.00140      0.06234      0.01007      0.00162      0.06165      0.01200      
57700   0.15250    0.03551    0.05144    0.00135      0.06226      0.00972      0.00155      0.06153      0.01204      
57800   0.15281    0.03563    0.05154    0.00144      0.06229      0.00959      0.00157      0.06159      0.01185      
57900   0.15268    0.03550    0.05140    0.00136      0.06237      0.01021      0.00160      0.06164      0.01202      
58000   0.15235    0.03554    0.05130    0.00145      0.06214      0.00966      0.00163      0.06133      0.01185      
58100   0.15261    0.03554    0.05139    0.00145      0.06218      0.01025      0.00174      0.06142      0.01236      
58200   0.15219    0.03540    0.05125    0.00139      0.06215      0.01005      0.00167      0.06143      0.01230      
58300   0.15308    0.03570    0.05158    0.00143      0.06233      0.01016      0.00168      0.06150      0.01201      
58400   0.15273    0.03572    0.05138    0.00133      0.06230      0.00999      0.00157      0.06149      0.01187      
58500   0.15255    0.03559    0.05135    0.00141      0.06229      0.00961      0.00160      0.06150      0.01176      
58600   0.15292    0.03575    0.05143    0.00155      0.06226      0.00960      0.00183      0.06152      0.01177      
58700   0.15281    0.03564    0.05143    0.00147      0.06233      0.00979      0.00177      0.06158      0.01179      
58800   0.15287    0.03576    0.05145    0.00149      0.06224      0.00967      0.00165      0.06149      0.01186      
58900   0.15281    0.03557    0.05142    0.00150      0.06244      0.00935      0.00170      0.06158      0.01111      
59000   0.15216    0.03547    0.05119    0.00142      0.06217      0.00951      0.00165      0.06139      0.01138      
59100   0.15247    0.03543    0.05118    0.00139      0.06241      0.01025      0.00157      0.06156      0.01231      
59200   0.15229    0.03539    0.05111    0.00136      0.06242      0.01001      0.00156      0.06161      0.01203      
59300   0.15219    0.03544    0.05111    0.00141      0.06221      0.01017      0.00164      0.06152      0.01223      
59400   0.15237    0.03540    0.05113    0.00148      0.06215      0.01107      0.00169      0.06135      0.01251      
59500   0.15219    0.03531    0.05109    0.00148      0.06223      0.01037      0.00174      0.06145      0.01206      
59600   0.15160    0.03513    0.05091    0.00141      0.06210      0.01023      0.00162      0.06127      0.01244      
59700   0.15182    0.03505    0.05085    0.00163      0.06240      0.00942      0.00185      0.06151      0.01132      
59800   0.15121    0.03487    0.05058    0.00147      0.06240      0.00944      0.00175      0.06159      0.01158      
59900   0.15128    0.03479    0.05065    0.00148      0.06230      0.01026      0.00166      0.06146      0.01245      
60000   0.15099    0.03475    0.05055    0.00137      0.06243      0.00944      0.00157      0.06157      0.01132      
60100   0.15100    0.03464    0.05056    0.00157      0.06225      0.00989      0.00170      0.06130      0.01154      
60200   0.15030    0.03444    0.05030    0.00147      0.06222      0.00935      0.00168      0.06141      0.01148      
60300   0.15088    0.03451    0.05048    0.00157      0.06241      0.00957      0.00174      0.06165      0.01168      
60400   0.15076    0.03472    0.05047    0.00136      0.06226      0.00973      0.00157      0.06146      0.01171      
60500   0.15110    0.03471    0.05058    0.00146      0.06237      0.00992      0.00167      0.06158      0.01218      
60600   0.15093    0.03466    0.05050    0.00138      0.06232      0.01037      0.00157      0.06163      0.01241      
60700   0.15088    0.03467    0.05044    0.00141      0.06233      0.01018      0.00167      0.06169      0.01244      
60800   0.15030    0.03448    0.05018    0.00142      0.06227      0.00971      0.00158      0.06151      0.01184      
60900   0.15017    0.03445    0.05010    0.00149      0.06226      0.00941      0.00171      0.06157      0.01160      
61000   0.15008    0.03435    0.05005    0.00144      0.06234      0.00948      0.00162      0.06169      0.01160      
61100   0.15000    0.03439    0.05005    0.00134      0.06223      0.00999      0.00155      0.06148      0.01206      
61200   0.14951    0.03419    0.04982    0.00143      0.06211      0.00974      0.00168      0.06132      0.01207      
61300   0.14971    0.03419    0.04995    0.00141      0.06203      0.01070      0.00163      0.06127      0.01257      
61400   0.14978    0.03432    0.04994    0.00146      0.06211      0.00979      0.00169      0.06138      0.01203      
61500   0.14944    0.03418    0.04977    0.00136      0.06221      0.00961      0.00161      0.06143      0.01178      
61600   0.14980    0.03429    0.04990    0.00146      0.06216      0.00990      0.00169      0.06139      0.01195      
61700   0.14975    0.03428    0.04987    0.00163      0.06208      0.00945      0.00171      0.06126      0.01150      
61800   0.14896    0.03401    0.04959    0.00156      0.06188      0.00953      0.00181      0.06114      0.01150      
61900   0.14886    0.03405    0.04958    0.00149      0.06186      0.00940      0.00172      0.06107      0.01175      
62000   0.14879    0.03374    0.04956    0.00151      0.06193      0.01026      0.00178      0.06114      0.01234      
62100   0.14868    0.03380    0.04952    0.00136      0.06209      0.00957      0.00155      0.06121      0.01190      
62200   0.14836    0.03358    0.04930    0.00162      0.06192      0.00966      0.00174      0.06117      0.01154      
62300   0.14815    0.03354    0.04920    0.00150      0.06194      0.00977      0.00175      0.06107      0.01163      
62400   0.14790    0.03351    0.04914    0.00149      0.06180      0.00982      0.00177      0.06104      0.01233      
62500   0.14732    0.03323    0.04884    0.00138      0.06191      0.00984      0.00158      0.06112      0.01196      
62600   0.14791    0.03355    0.04911    0.00138      0.06191      0.00984      0.00160      0.06112      0.01200      
62700   0.14829    0.03344    0.04923    0.00162      0.06195      0.01036      0.00189      0.06117      0.01239      
[...]
25300   0.10035    0.01176    0.02833    0.00124      0.05736      0.00836      0.00150      0.05694      0.01038      
25400   0.10035    0.01176    0.02832    0.00123      0.05737      0.00832      0.00148      0.05695      0.01033      
25500   0.10034    0.01176    0.02832    0.00123      0.05737      0.00834      0.00148      0.05694      0.01035      
25600   0.10033    0.01176    0.02832    0.00123      0.05737      0.00832      0.00148      0.05694      0.01033      
25700   0.10033    0.01175    0.02832    0.00123      0.05737      0.00832      0.00148      0.05695      0.01035      
25800   0.10032    0.01175    0.02832    0.00122      0.05737      0.00836      0.00148      0.05695      0.01038      
25900   0.10032    0.01174    0.02831    0.00123      0.05736      0.00836      0.00149      0.05693      0.01038      
26000   0.10031    0.01174    0.02831    0.00122      0.05737      0.00835      0.00148      0.05694      0.01036      
26100   0.10030    0.01174    0.02830    0.00123      0.05736      0.00837      0.00148      0.05693      0.01039      
26200   0.10030    0.01173    0.02830    0.00123      0.05736      0.00835      0.00148      0.05694      0.01038      
26300   0.10029    0.01173    0.02830    0.00123      0.05736      0.00835      0.00148      0.05693      0.01036      
26400   0.10028    0.01172    0.02830    0.00123      0.05736      0.00834      0.00149      0.05693      0.01034      
26500   0.10028    0.01172    0.02829    0.00123      0.05736      0.00835      0.00149      0.05693      0.01036      
26600   0.10027    0.01172    0.02829    0.00123      0.05736      0.00834      0.00149      0.05693      0.01035      
26700   0.10027    0.01172    0.02829    0.00124      0.05735      0.00836      0.00149      0.05693      0.01039      
26800   0.10026    0.01172    0.02829    0.00123      0.05736      0.00835      0.00148      0.05694      0.01038      
26900   0.10026    0.01172    0.02828    0.00123      0.05735      0.00835      0.00149      0.05693      0.01038      
27000   0.10025    0.01172    0.02828    0.00123      0.05735      0.00839      0.00148      0.05693      0.01042      
27100   0.10025    0.01171    0.02828    0.00123      0.05735      0.00839      0.00148      0.05693      0.01042      
27200   0.10024    0.01171    0.02828    0.00124      0.05734      0.00837      0.00150      0.05692      0.01040      
27300   0.10024    0.01171    0.02827    0.00123      0.05735      0.00838      0.00148      0.05692      0.01040      
27400   0.10023    0.01171    0.02827    0.00123      0.05735      0.00836      0.00149      0.05693      0.01038      
27500   0.10023    0.01170    0.02827    0.00122      0.05735      0.00841      0.00148      0.05692      0.01044      
27600   0.10022    0.01170    0.02827    0.00122      0.05735      0.00838      0.00147      0.05693      0.01042      
27700   0.10021    0.01169    0.02826    0.00123      0.05735      0.00835      0.00148      0.05693      0.01039      
27800   0.10020    0.01169    0.02826    0.00123      0.05735      0.00835      0.00148      0.05692      0.01037      
27900   0.10020    0.01169    0.02826    0.00124      0.05734      0.00835      0.00149      0.05692      0.01036      
28000   0.10019    0.01168    0.02826    0.00123      0.05736      0.00834      0.00148      0.05693      0.01035      
28100   0.10019    0.01168    0.02825    0.00122      0.05736      0.00834      0.00148      0.05693      0.01036      
28200   0.10018    0.01168    0.02825    0.00122      0.05736      0.00834      0.00147      0.05694      0.01037      
28300   0.10017    0.01168    0.02825    0.00124      0.05734      0.00835      0.00149      0.05692      0.01037      
28400   0.10016    0.01167    0.02824    0.00123      0.05734      0.00838      0.00148      0.05692      0.01041      
28500   0.10016    0.01167    0.02824    0.00122      0.05735      0.00838      0.00148      0.05692      0.01041      
28600   0.10015    0.01167    0.02824    0.00123      0.05734      0.00836      0.00149      0.05692      0.01037      
28700   0.10014    0.01166    0.02824    0.00124      0.05734      0.00833      0.00149      0.05692      0.01034      
28800   0.10014    0.01166    0.02823    0.00123      0.05734      0.00834      0.00148      0.05692      0.01036      
28900   0.10013    0.01166    0.02823    0.00123      0.05734      0.00835      0.00148      0.05692      0.01037      
29000   0.10012    0.01166    0.02823    0.00123      0.05734      0.00835      0.00148      0.05692      0.01037      
29100   0.10012    0.01166    0.02823    0.00123      0.05734      0.00833      0.00148      0.05691      0.01034      
29200   0.10012    0.01165    0.02822    0.00124      0.05733      0.00835      0.00149      0.05691      0.01036      
29300   0.10011    0.01165    0.02822    0.00123      0.05735      0.00832      0.00148      0.05692      0.01033      
29400   0.10011    0.01165    0.02822    0.00123      0.05734      0.00833      0.00149      0.05692      0.01034      
29500   0.10011    0.01164    0.02822    0.00123      0.05734      0.00834      0.00148      0.05692      0.01035      
29600   0.10010    0.01164    0.02822    0.00122      0.05735      0.00835      0.00148      0.05693      0.01037      
29700   0.10009    0.01164    0.02821    0.00123      0.05734      0.00834      0.00148      0.05692      0.01034      
29800   0.10009    0.01164    0.02821    0.00123      0.05734      0.00834      0.00149      0.05691      0.01034      
29900   0.10008    0.01164    0.02821    0.00123      0.05733      0.00834      0.00149      0.05691      0.01034      
30000   0.10007    0.01163    0.02820    0.00123      0.05734      0.00832      0.00148      0.05691      0.01033      
30100   0.10006    0.01163    0.02820    0.00123      0.05733      0.00833      0.00148      0.05691      0.01032      
30200   0.10006    0.01163    0.02820    0.00122      0.05734      0.00836      0.00147      0.05692      0.01038      
30300   0.10006    0.01163    0.02819    0.00122      0.05734      0.00835      0.00147      0.05691      0.01038      
30400   0.10005    0.01163    0.02819    0.00123      0.05733      0.00836      0.00148      0.05690      0.01038      
30500   0.10004    0.01162    0.02819    0.00122      0.05733      0.00837      0.00147      0.05691      0.01038      
30600   0.10004    0.01162    0.02819    0.00122      0.05734      0.00836      0.00146      0.05692      0.01037      
30700   0.10003    0.01162    0.02818    0.00123      0.05733      0.00835      0.00148      0.05691      0.01036      
30800   0.10002    0.01161    0.02818    0.00123      0.05734      0.00833      0.00148      0.05692      0.01034      
30900   0.10002    0.01161    0.02818    0.00123      0.05733      0.00834      0.00148      0.05691      0.01036      
31000   0.10001    0.01161    0.02817    0.00122      0.05733      0.00834      0.00148      0.05691      0.01034      
31100   0.10000    0.01161    0.02817    0.00123      0.05732      0.00835      0.00148      0.05690      0.01036      
31200   0.10000    0.01161    0.02817    0.00122      0.05733      0.00837      0.00147      0.05691      0.01037      
31300   0.09999    0.01161    0.02817    0.00122      0.05733      0.00835      0.00147      0.05691      0.01036      
31400   0.09999    0.01161    0.02817    0.00122      0.05733      0.00836      0.00148      0.05691      0.01038      
31500   0.09999    0.01160    0.02816    0.00122      0.05733      0.00836      0.00147      0.05691      0.01038      
31600   0.09998    0.01160    0.02816    0.00122      0.05733      0.00838      0.00147      0.05691      0.01039      
31700   0.09997    0.01159    0.02816    0.00123      0.05732      0.00836      0.00148      0.05690      0.01037      
31800   0.09997    0.01159    0.02815    0.00123      0.05731      0.00838      0.00148      0.05690      0.01039      
31900   0.09996    0.01159    0.02815    0.00123      0.05732      0.00835      0.00149      0.05690      0.01035      
32000   0.09996    0.01158    0.02815    0.00123      0.05732      0.00836      0.00149      0.05690      0.01037      
32100   0.09995    0.01158    0.02815    0.00123      0.05733      0.00835      0.00148      0.05691      0.01034      
32200   0.09994    0.01158    0.02814    0.00123      0.05732      0.00836      0.00148      0.05690      0.01037      
32300   0.09993    0.01158    0.02814    0.00122      0.05732      0.00836      0.00147      0.05690      0.01036      
32400   0.09993    0.01157    0.02814    0.00122      0.05732      0.00837      0.00148      0.05690      0.01039      
32500   0.09992    0.01158    0.02813    0.00123      0.05731      0.00838      0.00148      0.05689      0.01039      
32600   0.09992    0.01157    0.02813    0.00123      0.05731      0.00839      0.00148      0.05689      0.01042      
32700   0.09992    0.01157    0.02813    0.00123      0.05732      0.00835      0.00148      0.05691      0.01037      
32800   0.09991    0.01157    0.02813    0.00123      0.05732      0.00834      0.00148      0.05690      0.01035      
32900   0.09991    0.01156    0.02813    0.00123      0.05731      0.00836      0.00148      0.05690      0.01036      
33000   0.09991    0.01156    0.02812    0.00123      0.05732      0.00835      0.00148      0.05691      0.01035      
33100   0.09990    0.01156    0.02812    0.00122      0.05732      0.00836      0.00148      0.05690      0.01037      
33200   0.09989    0.01156    0.02812    0.00123      0.05732      0.00834      0.00149      0.05690      0.01034      
33300   0.09989    0.01155    0.02812    0.00123      0.05732      0.00834      0.00148      0.05690      0.01034      
33400   0.09988    0.01155    0.02811    0.00123      0.05733      0.00834      0.00148      0.05691      0.01035      
33500   0.09988    0.01155    0.02811    0.00123      0.05733      0.00834      0.00148      0.05691      0.01035      
33600   0.09987    0.01155    0.02811    0.00123      0.05732      0.00836      0.00148      0.05691      0.01037      
33700   0.09987    0.01154    0.02810    0.00123      0.05732      0.00836      0.00149      0.05690      0.01038      
33800   0.09986    0.01154    0.02810    0.00122      0.05733      0.00833      0.00148      0.05691      0.01034      
33900   0.09985    0.01153    0.02810    0.00123      0.05732      0.00835      0.00148      0.05691      0.01037      
34000   0.09985    0.01153    0.02809    0.00122      0.05732      0.00838      0.00147      0.05691      0.01039      
34100   0.09984    0.01153    0.02809    0.00122      0.05732      0.00835      0.00148      0.05691      0.01036      
34200   0.09983    0.01153    0.02809    0.00122      0.05733      0.00832      0.00147      0.05691      0.01033      
34300   0.09983    0.01153    0.02809    0.00122      0.05732      0.00834      0.00147      0.05691      0.01036      
34400   0.09982    0.01153    0.02808    0.00123      0.05731      0.00835      0.00148      0.05689      0.01036      
34500   0.09981    0.01152    0.02808    0.00123      0.05732      0.00835      0.00148      0.05691      0.01036      
34600   0.09980    0.01152    0.02808    0.00123      0.05731      0.00834      0.00149      0.05689      0.01034      
34700   0.09980    0.01151    0.02808    0.00122      0.05732      0.00834      0.00148      0.05690      0.01036      
34800   0.09979    0.01151    0.02807    0.00122      0.05732      0.00834      0.00147      0.05690      0.01036      
34900   0.09978    0.01151    0.02807    0.00122      0.05732      0.00833      0.00147      0.05690      0.01033      
35000   0.09978    0.01151    0.02807    0.00122      0.05731      0.00836      0.00147      0.05690      0.01038      
35100   0.09978    0.01150    0.02806    0.00123      0.05731      0.00835      0.00148      0.05689      0.01037      
35200   0.09977    0.01150    0.02806    0.00123      0.05731      0.00834      0.00148      0.05690      0.01035      
35300   0.09976    0.01150    0.02806    0.00123      0.05731      0.00834      0.00149      0.05689      0.01035      
35400   0.09976    0.01149    0.02805    0.00123      0.05731      0.00834      0.00148      0.05689      0.01036      
35500   0.09975    0.01149    0.02805    0.00123      0.05731      0.00835      0.00148      0.05689      0.01037      
35600   0.09974    0.01149    0.02805    0.00123      0.05731      0.00832      0.00148      0.05689      0.01034      
35700   0.09974    0.01149    0.02805    0.00123      0.05730      0.00835      0.00149      0.05689      0.01037      
35800   0.09973    0.01149    0.02804    0.00122      0.05732      0.00834      0.00147      0.05690      0.01037      
35900   0.09972    0.01148    0.02804    0.00123      0.05731      0.00834      0.00148      0.05689      0.01037      
36000   0.09972    0.01148    0.02803    0.00123      0.05731      0.00834      0.00148      0.05689      0.01037      
36100   0.09971    0.01148    0.02803    0.00123      0.05731      0.00834      0.00148      0.05689      0.01035      
36200   0.09970    0.01147    0.02803    0.00123      0.05731      0.00833      0.00148      0.05689      0.01034      
36300   0.09970    0.01147    0.02802    0.00123      0.05730      0.00836      0.00149      0.05688      0.01038      
36400   0.09969    0.01147    0.02802    0.00123      0.05730      0.00833      0.00148      0.05688      0.01033      
36500   0.09968    0.01147    0.02802    0.00123      0.05730      0.00834      0.00148      0.05688      0.01035      
36600   0.09968    0.01147    0.02802    0.00123      0.05730      0.00833      0.00148      0.05689      0.01034      
36700   0.09967    0.01146    0.02801    0.00122      0.05730      0.00835      0.00148      0.05688      0.01036      
36800   0.09967    0.01146    0.02801    0.00122      0.05730      0.00835      0.00147      0.05688      0.01036      
36900   0.09966    0.01146    0.02801    0.00122      0.05731      0.00835      0.00147      0.05689      0.01037      
37000   0.09965    0.01145    0.02801    0.00123      0.05730      0.00834      0.00148      0.05688      0.01036      
37100   0.09965    0.01145    0.02800    0.00123      0.05730      0.00833      0.00149      0.05688      0.01034      
37200   0.09965    0.01145    0.02800    0.00123      0.05730      0.00835      0.00148      0.05689      0.01038      
37300   0.09964    0.01145    0.02800    0.00123      0.05730      0.00834      0.00148      0.05689      0.01036      
37400   0.09963    0.01144    0.02800    0.00122      0.05730      0.00834      0.00148      0.05689      0.01036      
37500   0.09963    0.01144    0.02799    0.00123      0.05730      0.00834      0.00148      0.05689      0.01036      
37600   0.09962    0.01144    0.02799    0.00123      0.05730      0.00834      0.00148      0.05689      0.01036      
37700   0.09961    0.01144    0.02799    0.00123      0.05730      0.00832      0.00148      0.05689      0.01034      
37800   0.09961    0.01143    0.02798    0.00122      0.05730      0.00833      0.00147      0.05689      0.01034      
37900   0.09960    0.01143    0.02798    0.00123      0.05730      0.00833      0.00149      0.05688      0.01034      
38000   0.09960    0.01143    0.02798    0.00122      0.05730      0.00832      0.00147      0.05689      0.01033      
38100   0.09959    0.01143    0.02797    0.00123      0.05729      0.00834      0.00149      0.05688      0.01036      
38200   0.09959    0.01143    0.02797    0.00122      0.05730      0.00831      0.00147      0.05689      0.01031      
38300   0.09958    0.01142    0.02797    0.00123      0.05730      0.00833      0.00148      0.05689      0.01035      
38400   0.09957    0.01141    0.02797    0.00123      0.05729      0.00834      0.00148      0.05688      0.01036      
38500   0.09956    0.01141    0.02796    0.00123      0.05729      0.00832      0.00149      0.05689      0.01032      
38600   0.09956    0.01141    0.02796    0.00123      0.05729      0.00832      0.00148      0.05689      0.01033      
38700   0.09955    0.01141    0.02796    0.00123      0.05730      0.00830      0.00149      0.05689      0.01031      
38800   0.09955    0.01140    0.02796    0.00124      0.05729      0.00831      0.00149      0.05688      0.01031      
38900   0.09954    0.01140    0.02795    0.00123      0.05730      0.00829      0.00148      0.05689      0.01030      
39000   0.09954    0.01140    0.02795    0.00123      0.05730      0.00831      0.00148      0.05689      0.01031      
39100   0.09953    0.01140    0.02795    0.00123      0.05730      0.00830      0.00148      0.05689      0.01030      
39200   0.09953    0.01139    0.02794    0.00123      0.05730      0.00831      0.00148      0.05689      0.01033      
39300   0.09952    0.01139    0.02794    0.00123      0.05729      0.00832      0.00148      0.05688      0.01034      
39400   0.09951    0.01139    0.02794    0.00123      0.05729      0.00833      0.00148      0.05688      0.01034      
39500   0.09950    0.01139    0.02794    0.00123      0.05729      0.00830      0.00149      0.05688      0.01030      
39600   0.09950    0.01139    0.02793    0.00122      0.05729      0.00830      0.00147      0.05688      0.01030      
39700   0.09949    0.01138    0.02793    0.00123      0.05728      0.00830      0.00149      0.05687      0.01030      
39800   0.09948    0.01138    0.02793    0.00123      0.05729      0.00831      0.00148      0.05688      0.01032      
39900   0.09947    0.01138    0.02792    0.00124      0.05728      0.00828      0.00149      0.05687      0.01029      
40000   0.09947    0.01137    0.02792    0.00122      0.05729      0.00829      0.00148      0.05688      0.01030      
40100   0.09947    0.01137    0.02792    0.00122      0.05730      0.00829      0.00148      0.05689      0.01029      
40200   0.09946    0.01137    0.02792    0.00123      0.05729      0.00829      0.00148      0.05688      0.01029      
40300   0.09945    0.01137    0.02792    0.00123      0.05729      0.00829      0.00148      0.05687      0.01029      
40400   0.09945    0.01137    0.02791    0.00123      0.05729      0.00829      0.00148      0.05688      0.01029      
40500   0.09944    0.01136    0.02791    0.00122      0.05729      0.00830      0.00147      0.05688      0.01030      
40600   0.09943    0.01136    0.02790    0.00123      0.05728      0.00830      0.00148      0.05687      0.01031      
40700   0.09943    0.01136    0.02790    0.00122      0.05728      0.00830      0.00148      0.05687      0.01030      
40800   0.09942    0.01135    0.02790    0.00122      0.05728      0.00830      0.00148      0.05688      0.01031      
40900   0.09941    0.01135    0.02789    0.00123      0.05728      0.00829      0.00148      0.05687      0.01030      
41000   0.09941    0.01135    0.02789    0.00123      0.05728      0.00831      0.00148      0.05687      0.01032      
41100   0.09940    0.01135    0.02789    0.00122      0.05728      0.00831      0.00148      0.05688      0.01031      
41200   0.09940    0.01135    0.02789    0.00123      0.05727      0.00832      0.00148      0.05687      0.01034      
41300   0.09939    0.01135    0.02788    0.00122      0.05728      0.00831      0.00148      0.05687      0.01032      
41400   0.09939    0.01134    0.02788    0.00122      0.05728      0.00830      0.00148      0.05687      0.01032      
41500   0.09938    0.01134    0.02788    0.00123      0.05727      0.00829      0.00149      0.05687      0.01029      

---------------------------------------------------------------
Time used for training = 26175.453125 s.
---------------------------------------------------------------


---------------------------------------------------------------
Finished running nep.
---------------------------------------------------------------

