 -4.1740310e-01   1.5567063e-04
  1.6049539e-01   2.8030260e-04
 -1.0143441e-01   2.0954455e-04
 -1.1724561e-02   3.0828008e-04
  6.2863576e-01   5.8542320e-04
 -2.2196326e-01   2.2848701e-04
  4.3125781e-01   9.4573095e-04
 -4.8419923e-01   3.1993404e-05
  4.9858209e-02   4.9426372e-04
  4.7041662e-02   8.9051900e-04
 -9.0594939e-04   3.2261941e-03
  3.8285335e-03   3.1553691e-03
 -7.4014984e-02   9.4154570e-04
 -1.1945803e-02   2.1767891e-03
 -5.7637662e-02   2.0111641e-03
 -2.4009651e-02   1.0947916e-03
  6.9735684e-02   1.7078498e-03
  6.9637801e-03   1.7334993e-03
  3.3851128e-02   6.0381839e-04
 -2.5499118e-02   3.8307677e-03
 -3.4584388e-02   1.1195153e-04
  4.8024543e-02   8.2752883e-04
  5.2834875e-03   6.3417142e-04
  1.1946977e-01   3.3936254e-04
  2.7928453e-02   1.2426169e-03
  1.0392170e-01   7.0836465e-04
 -1.8840519e-03   1.4203537e-03
  1.5678227e-01   1.0712320e-03
  4.7310952e-02   6.0146552e-04
  6.0021132e-04   1.6351545e-03
 -6.6913655e-03   8.1215106e-04
  1.7308474e-02   1.1648064e-03
  1.1818804e-02   3.8857393e-03
 -4.1902238e-03   2.3710015e-03
  2.7514007e-02   1.5210079e-03
 -1.3663869e-02   3.1416947e-03
  2.0019321e-02   1.8760745e-03
  1.0380396e-01   5.0522591e-05
  1.2163981e-02   1.3514252e-03
 -6.3290983e-03   6.2980928e-04
  1.1794255e-03   1.3418753e-03
 -2.8803296e-02   3.7292961e-03
 -3.2885759e-03   1.7967765e-03
  9.8152901e-04   6.9015060e-04
  3.8595793e-01   8.2195045e-05
  3.8007270e-03   1.5715930e-03
  9.3907721e-02   6.5283832e-04
  7.8815736e-02   2.4881578e-04
 -6.6447634e-01   4.2596846e-04
  1.2847569e+00   3.0757050e-04
  1.0932800e-02   2.0474933e-04
 -1.2349729e-04   2.1087189e-04
 -2.5593337e-01   3.0279870e-04
 -1.6915238e-02   1.8256120e-03
  1.9578822e-03   4.2454759e-03
 -1.1185251e-02   4.8228591e-03
  7.8216717e-03   8.2867459e-04
  2.5037741e-02   3.2361872e-03
  1.8582827e-01   6.5367296e-03
  2.8546520e-02   9.3273720e-04
  2.1665614e-02   2.2424634e-03
  2.4936168e-02   2.5480113e-03
  1.2719205e-03   1.2724813e-03
  9.5860539e-03   1.0646820e-03
 -2.7687776e+00   1.6206621e-04
  6.4009860e-02   1.5260916e-03
  1.0725521e-01   1.8837058e-03
 -5.3617500e-02   2.9529296e-04
  3.0821098e-02   2.6673251e-03
 -1.7805275e-01   7.6656218e-04
 -1.5337282e-03   1.3971234e-03
 -6.6296235e-02   1.0017916e-04
 -3.2026500e-02   1.3735861e-03
 -4.7091508e-01   3.0718310e-04
  1.8890628e-01   2.0427948e-03
  1.5910461e-03   2.5388151e-03
  3.1693291e-02   6.0259207e-04
  7.3846886e-03   4.5736339e-03
 -2.4801621e-02   1.5680698e-03
 -2.3144512e-03   3.0915283e-03
  3.4789434e-03   3.5786454e-03
  3.8764107e-03   1.7331103e-03
 -7.8508500e-03   1.7856809e-03
 -8.4186671e-05   4.1214945e-03
  1.0935050e-02   2.4293433e-03
 -2.3569528e-03   3.1276590e-03
 -9.2412103e-03   4.2033112e-03
 -3.8070765e-03   8.6482696e-04
 -7.4589036e-02   5.8252487e-04
  1.5927419e-01   2.3163680e-03
  2.9133353e+00   4.5462413e-04
  5.0388336e-01   1.3468032e-03
  1.8623513e-01   5.1486981e-04
  1.0619850e+00   2.0193576e-04
  4.4086581e-01   3.9302281e-04
 -2.5607586e-02   1.3491052e-03
  1.2936012e-01   3.8426789e-04
 -7.0573031e-03   5.6599621e-03
 -4.4602219e-02   8.4118824e-04
 -5.6166640e-03   8.1285037e-04
  1.4703667e-03   5.0555114e-03
  1.2653042e-02   1.7535733e-03
  2.4227215e-02   2.3024392e-03
 -2.3150954e-02   1.9931202e-03
  4.0260784e-02   5.6465005e-04
  2.1690316e-04   1.8710452e-03
 -5.8736241e-01   1.3404676e-03
 -4.8805471e-03   2.2220928e-03
 -9.2947325e-03   2.6023332e-03
  1.5456390e-02   1.3726727e-03
  4.2261230e-03   4.3541123e-03
  2.2931893e-01   2.7387397e-04
  1.2276601e-03   1.3905468e-03
  5.1657916e-03   4.9933774e-04
  2.3141647e-02   4.0778574e-03
 -6.5937806e-03   1.2757339e-03
  1.1874147e-01   1.3813776e-03
  7.6277936e-03   5.4123346e-03
 -1.4389987e-01   5.2802247e-04
  2.9006158e-05   4.4395914e-03
  8.3854152e-03   1.7491383e-03
  2.6289497e-03   3.2920362e-03
 -2.9785797e-04   2.2541250e-03
 -4.0464466e-03   2.8640686e-03
 -6.4124768e-03   4.2963619e-03
  1.2037409e-02   2.5309296e-03
 -1.2484356e-02   1.3653195e-03
 -4.9970681e-03   7.9349277e-04
  2.0052353e-03   2.1098340e-03
  4.9931905e-04   3.3666077e-03
  1.8189933e-02   1.6660378e-03
  1.0740014e-02   3.9297622e-03
  2.4618605e-01   2.9279527e-04
  5.4340202e-01   4.4559903e-04
  3.1024085e-03   3.5667710e-04
 -3.4407303e-02   5.4104713e-04
  1.1680773e+00   3.8101518e-04
 -1.8133007e-02   2.5289026e-04
 -1.3519368e-01   4.6372475e-04
 -1.4246266e-01   4.2468531e-04
 -5.5581892e-01   2.6450877e-04
 -2.5680276e-02   3.5554683e-03
  1.3043366e-02   2.4269002e-03
 -1.2822011e-02   9.7059610e-04
 -1.5235399e-02   1.6844184e-03
  1.5256818e-01   2.1494282e-03
  2.0661804e-01   3.6532030e-04
  1.8242391e-02   3.7409139e-03
  1.0351454e-01   1.5924495e-03
 -3.4694448e+00   2.7105381e-04
  8.9418191e-01   1.7242073e-03
 -1.3865194e-03   1.5776004e-03
  7.4005210e-01   4.3892517e-04
  7.9498790e-02   4.2291611e-04
  1.1313962e+00   2.6205757e-03
 -1.0134516e-01   6.0663361e-04
  7.0775063e-03   5.6817397e-03
 -3.8041973e-01   8.6647947e-04
 -2.2786623e-01   1.8424991e-03
 -1.9146764e-01   1.4580489e-03
 -1.1186928e-01   3.8716363e-04
  1.9179950e-02   3.2013538e-03
  4.7475970e-03   1.5836022e-03
 -6.2996731e-03   3.5998092e-03
  5.5287383e-02   2.6351667e-03
  3.0331742e-02   1.3257064e-03
 -2.5732074e-02   1.6148798e-03
  3.6605410e-02   1.2761719e-03
  6.9794931e-02   2.0060649e-03
  4.2404504e-03   2.8233551e-03
 -1.8585196e-02   2.4427709e-03
  6.1471201e-02   1.8514642e-03
 -3.7312647e-03   2.9631045e-03
  3.8667622e-03   1.1450911e-03
 -3.0411363e-03   1.6329233e-03
  4.0574917e-03   7.1325921e-03
 -2.1938596e-02   3.7681547e-04
  3.6008473e-04   5.5143092e-04
 -4.2133668e-04   1.2145299e-03
  1.7197961e-02   3.6768150e-04
 -5.7752807e-02   4.7981396e-04
  5.4223394e-01   2.2931212e-04
 -6.7010295e-01   1.4528270e-04
 -3.2914735e-02   6.9546181e-04
 -8.7161201e-01   1.2088159e-04
  1.3328278e-02   1.7512675e-03
  6.6620689e-03   3.8498265e-03
  1.2072115e-02   3.2282402e-03
  2.5143487e-02   1.2532157e-03
  1.2269134e-02   1.8919938e-03
 -4.6308339e-02   1.8605785e-03
  4.9661361e-03   1.6082275e-03
  2.9934936e-03   6.1597314e-04
  3.8405336e-03   2.6525392e-03
 -2.3185175e-02   6.9641304e-04
 -5.2044164e-02   1.3536749e-03
  1.0057121e-02   4.2424953e-04
  1.3032090e-03   2.4568862e-03
  2.2920985e-02   6.1356503e-04
  3.9883539e-02   2.8927836e-03
  8.6891174e-04   1.3869556e-03
 -1.1234077e-02   1.7857308e-03
 -9.2636039e-03   2.1545994e-03
  1.0800404e-02   7.0867350e-04
 -2.4393771e-03   2.3706723e-03
 -3.4720902e-03   4.5622266e-03
  3.2494135e-02   5.5817096e-04
 -4.6526588e-04   2.8395460e-03
  1.7412325e-02   3.7952309e-04
  5.5000996e-03   1.1858303e-03
  2.3139374e-04   1.0629072e-03
  1.8239053e-02   1.4235500e-03
 -5.6118383e-03   2.6196013e-03
  3.8278924e-04   2.4347662e-03
  3.2047562e-03   1.9264738e-03
  1.0103761e-03   2.5918640e-03
 -1.2470094e-02   5.2288822e-03
 -5.6932739e-04   1.0533147e-03
 -3.6722325e-02   6.6253752e-04
 -1.6087872e-03   2.5307870e-04
 -7.1574521e-01   2.5166207e-04
  7.4403042e-01   6.8442198e-04
  2.8053620e-01   3.9093880e-04
 -5.2529210e-01   6.6111545e-04
  4.9996793e-01   9.7209719e-05
 -1.0163509e+00   1.1512674e-04
 -3.7058604e+00   1.1331772e-04
  1.4852494e+00   5.3244847e-04
 -1.4591501e+00   8.5799991e-05
  1.1628324e-02   2.7807762e-03
  1.2330449e-01   1.5003005e-03
  2.9420096e-02   1.4616152e-03
 -1.0200211e+00   1.9724185e-03
 -7.7213418e-01   1.9803420e-03
 -9.1565773e-03   2.6391828e-03
  5.8889808e-03   4.0828006e-04
  1.8755652e-02   1.4747476e-03
  3.8389003e-01   3.1607579e-03
  1.4139074e-01   4.5780065e-03
  2.7352277e-02   5.9237145e-04
 -4.3925308e-03   2.1585391e-03
 -9.0325646e-02   2.7986404e-03
  2.6509339e-01   2.6611972e-03
  7.3812909e-02   1.7715517e-03
 -8.6754393e-03   2.6121172e-03
  2.7210396e-02   2.9440111e-04
  1.7493594e-02   3.0880796e-03
 -6.1297596e-01   5.3307717e-04
  2.5667488e-03   9.9775684e-04
  1.8704374e-01   1.4956815e-03
 -8.4781954e-03   2.0788054e-03
 -8.2797728e-02   1.4616796e-03
 -1.6233221e-01   2.3780698e-03
 -5.3963643e-01   1.1663188e-02
 -5.3688848e-01   1.6064104e-03
 -4.7305755e-02   2.8495956e-03
  4.2388286e-03   4.2963531e-03
 -2.0535843e-02   4.5096450e-03
 -5.6669628e-03   2.2026135e-03
  1.9987522e-02   1.6795471e-03
  4.4564813e-02   3.3864516e-03
 -2.3449151e-02   1.3560716e-03
 -5.6005237e-03   4.7349557e-03
 -3.7622449e-03   3.0682832e-03
  1.0420761e+00   5.0878079e-05
  1.2128752e+00   2.2619970e-04
 -5.8376116e-01   6.6163810e-04
  1.0796497e+00   5.5916846e-04
 -3.8414317e-01   3.0263804e-04
 -2.0301223e+00   7.7349177e-06
 -8.2787299e-01   3.4084678e-06
 -1.3042958e+00   1.0712809e-03
 -1.1266385e+00   1.2750216e-04
  2.5478159e-03   9.9839224e-04
  2.0892857e-02   1.7445922e-03
 -8.5890889e-03   3.2001543e-03
  1.2057258e-02   1.5955153e-03
 -8.4488027e-02   3.5931397e-04
  1.4120002e+00   5.8177614e-04
 -1.5960619e-03   1.9661803e-03
  4.1623533e-01   2.8434822e-03
  2.0535986e-01   1.2794118e-03
 -3.4796542e-03   1.0170550e-04
 -5.2494210e-01   2.7350473e-04
  2.5338796e-01   9.0210821e-04
  3.8345316e-01   1.4888978e-03
  1.2387390e-02   8.8354060e-04
 -1.8547329e+00   4.2800183e-04
  3.0733753e-02   1.6140285e-03
  1.3135873e+00   8.6140056e-04
 -2.5717509e-01   1.3646462e-03
  2.6663924e-02   6.9358584e-04
  2.6029298e+00   4.8843136e-05
  2.2622351e-01   1.0459389e-03
 -1.2056423e-01   1.3057837e-03
 -1.2866661e-01   2.0511940e-04
  7.9041403e-03   1.4673631e-03
  1.3124944e-02   2.6686066e-03
 -3.2330606e-02   1.5713538e-03
 -5.0981832e-03   6.4190343e-04
  4.4958256e-02   4.3063020e-04
  4.8171021e-03   1.0715623e-03
  5.5925068e-03   5.4830237e-04
 -7.5926096e-03   2.9738618e-03
  3.1027175e-04   4.4593550e-03
 -2.5157651e-02   9.3877059e-04
  3.4337208e-02   2.6465426e-04
 -1.4168606e-02   3.7073037e-03
 -1.1271853e-03   1.2715211e-03
  1.1042864e-02   1.6720471e-03
 -1.7710308e-02   3.0580892e-03
 -2.5040102e-01   7.7912374e-04
 -2.0331835e-02   4.9702870e-04
  1.8865641e-02   1.8610950e-03
  2.4971059e-03   1.6313782e-03
  4.5356364e-03   3.8759673e-03
  5.8213901e-03   1.4364306e-03
 -4.3261731e-03   1.0467184e-03
 -6.2816055e-04   2.4883605e-03
 -2.1839538e-03   1.0051264e-03
  1.1251602e-02   5.4784319e-03
  2.3333472e-05   3.1915975e-03
 -4.4764776e-04   1.7602338e-03
  9.3372725e-03   1.4193784e-03
  1.9327210e-02   1.6270922e-03
  5.2722883e-03   1.2636923e-03
 -9.9551380e-03   2.7314837e-03
 -3.6982452e-03   2.5765258e-03
 -7.9313368e-03   4.4554016e-03
 -1.8371734e-03   2.7109708e-03
  1.8345205e-02   9.1352116e-04
  3.4878547e-03   2.1611040e-03
  4.7794640e-02   2.1140822e-03
 -1.1361158e-02   1.6248230e-03
  2.1374090e-01   1.0139655e-03
  3.4399860e-02   1.9043192e-04
  1.8315408e-02   1.6188056e-03
 -2.5490342e-02   1.0829315e-03
  8.5215960e-03   3.4925465e-03
 -1.4755381e-03   1.3354232e-03
  2.0377275e-03   4.6429731e-04
 -4.2981524e-03   2.4869912e-03
 -7.6553677e-03   2.3183422e-03
 -4.7103856e-03   2.4873521e-03
  2.1563077e-02   5.3583935e-04
  9.7141536e-03   1.7368550e-03
 -2.8481181e-03   1.8774656e-03
 -2.3921985e-02   2.2912163e-03
  9.1650971e-04   2.9519030e-03
 -3.1035222e-04   3.0736036e-03
 -7.1205399e-03   3.1547297e-03
  2.2661719e-03   1.3856463e-03
  7.9807259e-02   1.4516048e-04
  1.5407579e-01   3.6767084e-04
  3.3718499e-03   5.0769275e-04
 -3.5284504e-01   1.5873124e-04
 -3.3119896e-01   7.5658172e-05
 -2.8469867e-01   1.4043617e-04
 -5.2338463e-01   3.9023059e-04
  9.8531477e-02   3.3367175e-04
  3.5747808e-01   1.7587756e-04
  1.4669398e-02   2.2773894e-03
 -6.1256420e-02   1.1964601e-04
 -1.3732448e-01   3.0039144e-03
 -4.9186893e-02   1.7720265e-03
  3.9089200e-01   6.7139370e-04
  8.5990932e-03   9.8563929e-04
 -4.9947682e-01   1.1032276e-03
  9.1981910e-02   3.2706890e-04
 -2.6883602e-01   1.8674541e-03
 -4.6535083e-03   4.4224085e-04
  1.4850719e-01   4.6100805e-04
  6.5099686e-01   1.3778976e-04
  2.6808642e-03   6.0805579e-04
  1.0296032e-02   4.7253349e-04
  1.5827858e-01   1.1841511e-04
 -1.9738433e-01   1.9511580e-03
  7.0579223e-02   2.0111706e-04
  1.9927537e-01   7.3165371e-04
  3.4377515e-02   2.4175298e-04
 -3.5833079e-01   6.8137236e-04
  2.5537029e-02   7.8588957e-04
 -4.8103505e-03   1.6202830e-03
  1.4914757e-02   1.0968056e-03
 -5.9244181e-03   1.3911899e-03
 -7.9544215e-03   9.3540520e-04
 -3.9103472e-01   1.0989060e-03
  2.3452318e-03   1.3906168e-03
 -1.1995679e-01   1.6080081e-03
 -2.6491895e-01   1.7593929e-03
 -2.6217123e-02   1.0390627e-03
 -1.5684525e-03   1.8381544e-03
  6.3340096e-03   3.1541830e-03
  6.6371104e-03   3.2379271e-03
  1.0231804e-01   1.9539115e-03
  5.0157639e-03   7.5887336e-04
  7.8914905e-01   3.0137968e-04
 -1.7550135e+00   2.2784344e-04
  1.3348165e+00   8.4688037e-04
  1.3060765e-01   3.9261204e-04
 -3.4842825e-01   5.3591444e-04
 -1.0813739e+00   2.0643645e-04
  3.3130991e-01   3.0559918e-04
 -1.6987354e-01   6.5738015e-04
 -3.9521801e-01   3.2111185e-04
  1.4372337e-02   1.7897142e-03
 -4.6146261e-03   8.1496802e-04
  1.9158779e-02   1.5167077e-03
  1.0049294e+00   1.5487387e-03
  4.5660326e-01   2.0898643e-03
 -8.1707463e-03   1.8149660e-03
  4.9126029e-02   3.9566392e-03
  4.4705924e-02   1.8736881e-03
 -3.9142198e-03   1.8280396e-03
 -2.1546093e-01   6.0251114e-05
 -5.7812899e-02   1.6045697e-03
 -6.3630812e-02   1.4456308e-03
  1.1595871e-01   5.4137030e-04
  1.4341772e-01   6.5718501e-05
 -4.9140442e-02   4.7348556e-04
 -1.1847734e-02   9.7823632e-04
  2.9513650e+00   8.1148942e-04
 -9.6631654e-02   2.0696328e-03
 -6.6945471e-02   6.3304434e-04
 -4.5938781e-01   2.2506500e-04
  6.5145485e-02   6.1038911e-04
  1.1900221e-02   2.7230931e-03
  2.8206108e-05   1.6123984e-03
  4.1493839e-01   3.2121926e-03
  3.7595320e-01   1.3994318e-03
  5.2330289e-02   9.7350229e-04
 -3.9779842e-01   6.3767505e-04
  3.7092164e-01   5.5198888e-03
  2.3868393e-02   1.5008409e-03
 -1.4849107e-03   6.5355953e-03
  2.1294227e-02   4.6752204e-04
 -1.4104157e-02   5.7057119e-03
 -1.7697826e-02   2.2354552e-03
 -4.8770737e-02   1.0688186e-03
 -1.2147504e-02   1.5125489e-03
 -1.5438117e-01   1.4376975e-04
 -1.0633134e-02   2.3481124e-03
 -1.8763207e-04   1.1251250e-03
  1.3913573e-02   1.0663524e-03
 -9.5459767e-02   1.2571051e-03
  2.7316442e-02   5.7598756e-04
  2.0918900e-02   8.0451270e-04
  7.7610269e-02   6.0963212e-04
  2.6411355e+00   4.6510359e-05
  4.0101033e-02   2.0296047e-03
 -4.7341916e-03   3.0178912e-03
  4.1899335e-02   7.3772256e-04
  2.3155333e-03   8.8310626e-04
  1.9935334e-02   2.8394870e-03
  9.2507881e-04   1.3476871e-03
 -1.6325308e-02   3.2288039e-03
 -2.6433304e-02   2.4173858e-03
  2.7953846e-02   3.0966727e-03
  3.3649632e-03   3.7389018e-03
 -3.4833588e-03   3.4929432e-03
 -3.1601321e-02   5.4438366e-03
 -1.2084229e-02   1.4883222e-03
 -1.6085070e-02   2.0203232e-03
 -9.1937110e-03   1.8368629e-03
 -6.1927000e-03   5.4512690e-03
  1.8857088e-02   2.1804660e-03
 -9.3941961e-04   2.4788582e-03
  3.5820862e-03   2.0584625e-03
  4.4532367e-03   3.0228200e-03
  2.5521088e-03   2.3326469e-03
  3.5588540e-02   2.6017479e-03
 -6.1556329e-03   3.7291315e-03
  5.5189957e-03   3.3909651e-03
  2.2540865e-02   7.2913355e-04
  1.8061092e-04   1.9243921e-03
  1.2107904e-02   4.3966123e-03
 -3.4656390e-03   1.8964603e-03
  1.3036304e-02   5.9405128e-03
  5.2947493e-04   1.0881601e-03
  2.0745832e-03   3.1374374e-03
 -3.9649684e-02   4.0585781e-03
 -1.8830257e-02   4.2628720e-03
  8.3881905e-03   3.4299921e-03
 -9.9435188e-03   7.9121068e-03
 -4.6610418e-01   1.8834873e-05
  5.8125395e-01   1.9162269e-04
  1.0745831e+00   1.3966746e-04
 -7.9123938e-01   9.5464529e-05
  6.4799285e-01   8.2767598e-05
  6.4556009e-01   5.2250630e-06
  1.4279207e+00   9.0040499e-05
  1.7008626e+00   2.5940375e-04
 -3.6463740e-01   4.7099991e-05
  1.2508093e-01   8.3534210e-04
 -6.0271221e-01   1.9303424e-04
  4.8749769e-01   4.8860960e-04
  1.2117257e+00   5.6173443e-04
 -4.2261779e-02   2.6986314e-04
 -2.6299174e+00   2.5172800e-05
 -2.0588103e-01   5.6683068e-04
 -1.5812114e+00   3.5604206e-04
  1.1774805e-01   3.0969659e-05
  1.6255802e+00   2.8582435e-05
  9.8900205e-01   1.5746756e-04
 -2.2019534e-01   1.1743805e-04
 -3.5228303e-01   1.6898148e-04
 -1.6242254e-01   2.7120925e-04
 -1.1349654e+00   1.8733347e-04
 -8.3251023e-01   2.7820288e-04
  2.0148091e+00   2.4051470e-04
 -3.3989730e-01   8.2344653e-05
  9.1845155e-01   4.5002205e-05
  6.3923413e-01   4.2065087e-05
 -3.4999933e+00   4.4606547e-04
 -5.5669653e-01   6.5184833e-04
 -1.5375285e-01   8.8491011e-05
  2.1019166e+00   1.1133801e-04
 -1.8347648e-01   8.2072750e-04
 -7.0880604e-01   7.0406205e-04
  7.8787580e-02   4.1576239e-04
 -2.9385481e+00   3.9445024e-04
 -1.1821818e+00   3.9838941e-04
 -3.4524149e-01   1.5346288e-03
  4.4658828e-01   3.3871576e-04
 -6.7385715e-01   6.9664980e-05
  8.2802826e-01   8.4837020e-04
  5.6339556e-01   5.7951437e-04
 -1.5421642e-01   8.1464066e-04
  1.4375135e-01   3.3239735e-04
 -1.6716500e-03   7.9614238e-04
 -1.2473537e-02   2.7008285e-04
  6.5340686e-01   5.3205912e-04
 -1.6143164e-01   2.0785391e-04
 -6.8272573e-01   2.5717297e-04
 -1.3536681e-01   1.6172159e-04
  1.5979493e+00   3.0553408e-04
 -2.8141930e+00   3.7641145e-04
 -2.6436177e-01   8.5682707e-04
  3.1153399e-03   2.4232992e-03
 -3.1525013e-01   4.7300225e-03
 -6.0754329e-01   3.7504139e-04
 -2.5450832e-03   3.3582696e-03
 -4.3432247e-03   2.1632465e-03
  1.9167736e-01   7.3279040e-03
  1.0879823e-01   1.3478183e-03
 -4.7090005e-02   2.9046873e-03
 -5.0507581e-01   1.0832517e-03
  5.3441231e-03   2.5030705e-03
 -2.4777418e-03   1.0544487e-03
 -1.3143098e+00   6.1840529e-04
 -1.6773970e-01   7.6705572e-04
 -3.1007780e-02   2.0755427e-03
  8.5108168e-02   3.6381290e-03
  7.1278289e-02   1.2158604e-03
 -3.1639066e+00   8.6242252e-04
 -4.6067789e-02   1.6221952e-03
 -9.3658105e-02   3.2820698e-04
  3.2913636e-02   7.1709207e-04
 -4.9266918e-04   8.7305577e-04
  4.4882737e-02   3.9593694e-03
 -1.3199570e-03   1.9954152e-03
  2.5427289e-02   2.0053207e-03
 -9.8800035e-03   3.8651426e-03
  3.8212035e-03   1.8123806e-03
 -1.5712419e-03   4.6863360e-04
 -1.1950062e-03   4.4038184e-03
 -9.1826189e-03   1.7882016e-03
 -1.9857239e-02   2.0055816e-04
 -8.1910024e-05   1.8024503e-03
  2.7297748e-02   1.9727431e-03
 -1.7313173e-03   1.7060197e-03
  6.8803127e-03   1.6024150e-03
 -7.7553397e-01   8.3530344e-05
  1.0153588e+00   7.4171687e-05
  5.8459455e-01   3.1951448e-04
  7.7249235e-01   1.8584922e-04
 -1.7859428e+00   2.3224695e-05
 -5.2208364e-01   9.0867834e-05
 -9.3864357e-01   7.5983502e-05
  6.1849999e-01   7.6311168e-05
 -1.1649283e+00   8.5112639e-05
 -2.1384301e-02   4.4272305e-03
  5.7027326e-03   1.4108815e-03
 -2.8509957e-01   1.9940687e-03
 -5.1839419e-02   3.4813450e-03
 -8.4535354e-01   5.4966888e-05
  8.6439557e-02   9.7880443e-04
  5.4240268e-01   1.0377339e-03
  5.8936149e-01   2.6134094e-03
 -6.2619007e-01   3.1869559e-04
  1.3652980e+00   3.3515287e-04
 -8.0012389e-02   8.3942030e-04
 -1.0812471e-01   1.5647582e-03
  3.4520331e-01   4.0104348e-04
  1.0395148e+00   5.0260907e-04
 -2.2404869e+00   1.5134255e-04
  1.2289667e+00   8.4191276e-04
  8.0859728e-02   4.7824200e-04
  6.3095883e-02   2.9803321e-03
 -3.4027752e-02   8.0197543e-04
 -2.1142626e-01   3.7111112e-04
  3.2138073e-01   8.7123079e-04
 -1.5648690e+00   4.6425135e-04
  9.9259444e-02   2.2378985e-03
  2.8740600e-02   8.6418365e-04
  5.3739935e-02   1.0916316e-03
  2.2441950e-03   1.4546035e-03
  7.2586793e-01   2.3690362e-03
  5.8068871e-01   1.9487917e-03
  1.7237093e-02   2.7861740e-03
  3.2157715e-02   2.5065977e-03
 -1.0280930e+00   5.0349592e-04
  1.2994619e-02   2.4889936e-03
  1.3679235e-01   6.3154320e-03
 -6.3349828e-03   5.7144905e-04
 -1.6682442e-02   2.6307898e-03
  2.5734587e+00   2.5664996e-05
 -1.7624432e-02   4.6444833e-04
  4.3741345e-01   3.2301068e-05
  7.5908726e-01   4.8381492e-04
 -1.2427396e+00   1.1336599e-04
 -5.7516612e-02   2.4259565e-04
  4.5712724e-01   1.7144729e-04
 -6.8199284e-02   8.8363930e-05
 -9.9004149e-01   4.1265943e-05
  1.1598198e-01   2.3464900e-03
 -1.0009357e-02   2.7395061e-03
  5.9515429e-03   2.5249817e-03
 -5.0441291e-02   7.1675150e-04
 -8.8570062e-03   4.1193838e-04
 -6.8074670e-03   5.0898211e-04
 -1.4683065e-01   1.1062901e-03
  8.0399357e-02   1.8788927e-03
  9.7876079e-03   9.7048754e-04
  3.0451864e-01   2.6319671e-04
 -6.4755082e-02   3.7687388e-03
 -3.4698430e-02   1.1441287e-03
  4.1193843e-02   5.3431292e-04
 -5.2083794e-02   6.1864610e-04
  2.7846545e-01   4.5589014e-04
 -4.5139962e-03   2.0856168e-03
  7.1992151e-02   8.0684887e-04
 -5.4917880e-03   2.0155338e-04
  2.7741122e-03   3.2460116e-04
  4.1832542e-04   1.6071763e-03
 -2.5654035e-03   2.6665297e-03
 -4.0775126e-01   9.3364739e-04
  1.4832583e-03   1.4361201e-03
  2.7415666e-03   1.2690051e-03
  5.9833853e-03   1.3970011e-03
 -8.1242472e-03   1.5443439e-03
  4.9676043e-03   2.7806312e-04
  1.4391899e-02   4.4115525e-04
  6.2384475e-02   2.9809595e-04
 -1.7912863e-02   3.4519595e-03
 -2.7625951e-01   1.2782211e-03
 -3.6002062e-02   1.7964432e-03
 -9.3983319e-03   4.7820541e-03
  1.0095413e-03   1.7559337e-03
  1.7184803e-03   2.0421243e-03
  4.1308518e-02   3.0129959e-04
  1.1689846e-01   2.7440858e-04
 -1.7470088e-02   3.6441573e-04
  7.2192036e-02   1.0454255e-03
  9.8574840e-02   3.3667937e-04
 -2.4706082e-01   1.4793847e-04
 -2.4901520e-01   1.5989342e-03
 -2.5661316e-02   9.1301353e-04
 -3.2312054e-02   1.6864037e-04
 -5.2486621e-02   6.2902248e-03
  4.1990159e-03   2.6119438e-03
 -4.0117358e-03   3.9584450e-03
  2.6451172e-03   4.2630634e-03
  8.7194154e-03   3.0362445e-03
  2.6574805e-02   2.3805248e-03
  2.8260296e-02   3.8081739e-04
  1.2967634e-02   1.7071397e-03
  5.7431780e-02   2.3772954e-03
  9.3681840e-03   9.8344777e-04
 -6.4645097e-02   7.0603809e-04
  7.8961789e-04   1.2632053e-03
 -1.8967359e-03   5.6883041e-04
  2.4301641e-02   1.2553510e-03
 -6.2613920e-03   1.2009643e-03
  3.1971899e-01   1.3350425e-03
 -3.3299844e-03   1.1395947e-03
  7.8904852e-03   5.3329987e-04
 -5.5842398e-04   8.6829608e-04
 -1.1441388e-02   3.0534345e-04
  3.5918413e-03   4.0906260e-04
 -5.7460535e-03   2.0364756e-03
  6.1790417e-03   1.1214443e-03
 -5.3266264e-03   1.9929563e-03
  4.5797899e-03   8.2565343e-04
  1.1964702e-03   1.7598685e-03
 -1.2813014e-03   1.8709496e-03
  7.2211996e-02   4.7188285e-03
 -1.0897536e-02   2.8797737e-03
  4.6209912e-04   1.1953290e-03
 -2.4971836e-03   2.3428097e-03
 -2.1175690e-02   1.3296537e-03
  7.2251270e-03   2.1566842e-03
 -8.6327363e-03   1.1457234e-03
 -3.2306984e-03   1.9642659e-03
  8.8455725e-01   2.9359828e-04
  6.5275013e-02   1.1181387e-03
 -1.7168432e-01   3.7392284e-04
  8.2649790e-02   4.0755334e-04
  5.9635978e-02   6.2271988e-04
  2.1256769e-01   7.9450409e-05
  1.8952051e-03   8.0492394e-04
 -3.2077665e-03   1.2431376e-03
  1.1292777e-01   1.1596012e-04
  1.0520877e-02   4.3757712e-03
 -1.6603408e-02   3.2457043e-03
  5.5775517e-03   3.8370879e-03
 -6.8697920e-03   1.9629530e-03
 -9.0166023e-03   1.4070298e-03
  1.3457424e-03   1.6891989e-03
 -4.1166116e-02   3.3885450e-03
 -8.0653559e-03   2.0235528e-03
  1.2851955e-04   3.8595116e-03
 -2.6698235e-02   1.2610251e-03
  8.0295326e-03   1.6637912e-03
  1.0024200e-02   5.2121026e-04
  1.2090293e-02   2.1901631e-03
  5.5690352e-02   1.5890440e-03
  5.2866172e-02   6.8810547e-04
 -9.8813092e-03   3.1417033e-03
  5.7849765e-02   4.1820877e-04
  1.6073568e-02   3.4167683e-03
  1.2676840e-02   2.0371110e-03
  4.2145033e-03   4.0378422e-04
 -2.6407601e-02   3.0530768e-03
 -1.0765791e-05   4.0281209e-04
  1.3843030e-02   8.3051395e-04
  4.4178666e-04   3.6837996e-03
 -6.8118484e-03   2.3047887e-03
 -5.9781112e-03   2.4142524e-03
  6.6556670e-03   2.8379019e-03
 -1.3188204e-02   1.5137007e-03
 -2.5943622e-02   5.5440655e-04
 -3.8347927e-01   2.4740631e-04
  1.5583119e-03   2.1149179e-03
  6.8478892e-03   4.7805938e-03
  3.2850420e-03   3.2031820e-03
  2.4737412e-02   9.1094704e-04
  1.3326289e-02   1.8753167e-03
  5.3856213e-02   1.5241967e-04
 -1.3887504e-01   7.5023010e-04
  1.1290334e-02   6.6996651e-04
 -4.8397440e-02   2.7956371e-04
 -1.2309004e-01   4.2770818e-04
 -6.2666422e-01   6.6599034e-04
  3.4489250e-01   1.1976171e-04
  8.7019391e-02   8.6964859e-04
  9.5678516e-02   7.7171469e-05
  2.0457637e-02   1.4926912e-03
  1.9190133e-02   2.2244430e-03
 -3.8836831e-03   1.8893648e-03
 -9.0481741e-03   2.0440950e-03
 -3.2282129e-02   1.5425612e-03
  1.2029199e-02   1.9171739e-03
 -1.5857384e-02   1.2292044e-03
 -1.4261518e-01   6.4534991e-04
 -3.1339269e-02   2.7997275e-03
  3.1999111e-02   1.7286774e-03
  1.0693285e-01   1.0391889e-03
  2.0959617e-03   5.7936949e-04
 -1.4965644e-02   8.5380086e-04
  2.2806015e-02   1.0281370e-03
  2.4656126e-02   7.0161256e-04
  8.3281193e-03   3.2707974e-03
  1.5961386e-01   5.6162936e-04
  2.0165294e-01   1.5992119e-03
  4.3896131e-02   1.3516049e-03
 -2.1169630e-01   5.1199365e-04
 -1.9762954e-02   1.5444987e-03
  6.8306117e-03   2.9279918e-03
 -2.3348460e-02   2.9691393e-03
 -5.7854481e-02   1.0590220e-03
  1.3714625e-03   2.2764078e-03
  3.7211610e-03   2.8241850e-03
 -2.5186030e-02   1.3681204e-03
 -3.2070100e-02   2.1688205e-03
 -9.3767862e-04   6.8365615e-03
 -1.6103640e-02   3.9917282e-03
  2.6034782e-02   3.8981866e-03
 -4.7574248e+00   2.4428483e-04
  3.8120013e-02   5.4336479e-03
  8.2591116e-02   4.8519294e-05
  6.8163727e-03   2.4132056e-03
 -3.8291377e-01   3.7322319e-05
 -1.0064259e-01   4.0318081e-04
  9.3168837e-01   2.0332397e-04
  6.9875193e-01   1.0865978e-04
 -5.7919598e-01   1.4342376e-04
 -3.4409258e-01   8.5067157e-05
  2.7293456e-01   2.1379367e-04
  7.6905173e-01   4.0729457e-04
  4.7306439e-01   1.7138316e-04
  2.9359901e-01   2.9859997e-03
 -2.4641520e-01   7.2819198e-04
  3.3958003e-01   7.9068722e-04
  1.2861070e-02   1.9489587e-03
  5.7946271e-01   4.1847627e-04
 -5.1585071e-02   4.5774272e-04
 -9.5823300e-01   1.0741681e-03
 -3.3775060e-03   1.2436130e-03
 -4.0915009e-01   5.4198812e-04
 -1.3282917e-02   2.8475540e-04
  1.0700680e-03   1.4149771e-03
  2.4003837e-01   4.1392571e-04
 -2.2153194e-01   4.6306202e-04
 -8.4332034e-02   2.2060593e-04
  6.9651824e-01   1.2491981e-04
 -1.4468771e-02   2.9492234e-03
  4.8059824e-01   1.6874309e-04
  1.8938535e-01   9.2346646e-04
 -1.8021595e-01   3.5985571e-04
 -1.9097062e-02   2.7941074e-04
 -1.1500100e+00   4.9459620e-04
 -7.5663161e-01   4.0538178e-04
 -3.4394276e-03   2.9381991e-03
 -1.6469205e-02   1.1656504e-03
  4.1401118e-02   3.2861601e-04
  8.8992381e-01   9.2313747e-04
 -1.5779720e-01   1.4771277e-03
 -7.7211553e-01   1.1303984e-03
 -8.6078374e-03   1.2299105e-03
 -4.0344395e-02   5.5350894e-03
  2.0522203e-01   4.9387797e-04
  4.1160500e-03   2.0554306e-03
  3.9161805e-02   5.2479808e-03
 -2.1282325e-03   4.7871778e-03
  3.4000657e-03   1.4715930e-03
  7.9562131e-05   4.7745830e-03
 -4.3188725e-03   3.5340451e-03
 -8.1501191e-04   1.8949608e-03
  1.0007153e-02   1.0359598e-03
 -1.6186859e-01   3.9094046e-04
  9.4831446e-03   1.4487741e-03
 -1.5840944e-02   4.2304810e-04
 -2.4868120e-03   2.3640499e-03
  3.5303924e-03   1.4406918e-03
 -3.3715144e-02   4.3103218e-04
 -1.0153084e-02   1.4951971e-03
 -2.7686346e-03   4.2756149e-03
 -6.3279388e-03   1.6463166e-03
 -1.1141118e-02   2.5018810e-03
 -1.5966565e-03   1.8003938e-03
  1.0307048e-01   1.5706923e-03
 -6.8119704e-03   2.6867765e-03
  4.8801713e-03   2.9323602e-03
 -2.2342503e-03   2.1696002e-03
  3.0693323e-03   3.5670809e-03
  9.0599433e-04   4.6544992e-03
  5.5258786e-03   2.3094085e-03
 -3.1122744e-01   1.7119922e-03
 -4.9364679e-02   2.9864602e-03
  1.2832774e-02   3.9467150e-03
 -2.3107886e-02   5.5870470e-03
 -2.4839442e-03   6.4177776e-04
  3.3159603e-04   2.5110054e-03
  2.7475397e-03   2.4391781e-03
  7.1781786e-04   9.2677819e-04
  1.1197816e-03   1.3400282e-03
 -2.3952296e-02   2.9899040e-03
  1.2427100e-03   2.0880443e-03
  1.7639513e-03   1.6992342e-03
 -5.5075850e-04   9.4720616e-04
  7.1649970e-03   1.9762656e-03
 -7.1788453e-03   2.5375688e-03
 -2.1880737e-02   4.0817377e-03
 -1.7714521e-02   1.5917893e-03
 -6.0288496e-03   4.3846895e-03
  1.1004061e-03   1.6940874e-03
  1.4837462e-02   2.4436479e-03
  1.2533426e-02   2.8481134e-03
  2.3594315e-03   6.6146773e-04
  7.0631450e-01   1.7174394e-05
  9.2988777e-01   3.4141378e-04
 -5.4015481e-01   3.0037589e-04
  2.0814738e-01   2.1056372e-04
  5.0790757e-01   3.4660676e-05
 -3.3723569e-01   2.1528389e-05
  1.5309186e+00   1.5095681e-04
 -1.8602589e+00   5.5224675e-05
 -6.9469357e-01   2.8764542e-05
  4.0704142e-02   1.2928004e-03
  2.1973799e-03   7.5994869e-04
 -9.1023797e-01   1.0713260e-03
 -2.7983537e-01   2.1885217e-03
 -4.0775269e-01   2.9181823e-04
 -7.3813039e-01   9.9465286e-04
 -1.6546724e+00   4.4142804e-04
 -7.6829255e-01   7.0364814e-04
 -1.4002007e-01   5.0521118e-04
  8.7886006e-02   4.7573136e-04
  2.1029533e-01   1.0812577e-03
 -9.5272195e-01   2.1128886e-04
  6.5550900e-01   5.4371770e-04
 -5.1776022e-01   8.3129300e-04
 -1.1539749e-01   9.9970741e-05
 -3.4574956e-01   9.9360687e-04
 -1.2351197e+00   2.0222978e-04
 -7.1942067e-01   3.5602530e-05
 -1.7637472e+00   1.0126380e-04
  4.5661056e-01   2.8338048e-04
 -9.9507129e-01   8.0153055e-04
  5.5712748e-02   6.8898714e-04
 -3.5596564e-01   8.1763940e-04
 -7.4685997e-01   2.4545440e-04
  2.8356197e+00   8.6639149e-05
 -1.5295893e+00   1.0763333e-03
 -1.1389378e-02   1.4030037e-03
 -1.1410102e+00   6.4718514e-04
 -6.8288012e-03   4.0460941e-03
 -1.5731968e-03   2.3379619e-03
 -3.8487676e-01   1.5534227e-03
 -1.9185904e-01   3.0534193e-03
 -4.7499862e-01   4.0493081e-03
 -6.6553241e-01   1.0452493e-03
  7.4596810e-03   2.7642245e-03
 -8.2461521e-02   2.1537287e-05
  8.2076144e-01   8.5528998e-05
  4.5367977e-01   1.4093699e-04
 -9.8498218e-02   1.7311360e-04
  2.4819396e-01   2.3015302e-04
 -2.1373600e-01   1.1182009e-05
 -4.2732218e-01   1.0180523e-04
 -1.4305040e-01   1.3502919e-04
 -6.2674510e-01   4.2860262e-05
  2.6895395e-01   1.0853704e-03
  3.0308977e-01   9.3516620e-04
  5.1606908e-03   4.5796687e-04
 -9.5486670e-04   2.0976618e-03