
***************************************************************
*                 Welcome to use GPUMD                        *
*    (Graphics Processing Units Molecular Dynamics)           *
*                     Version 3.8                             *
*              This is the nep executable                     *
***************************************************************


---------------------------------------------------------------
GPU information:
---------------------------------------------------------------

number of GPUs = 1
Device id:                   0
    Device name:             NVIDIA GeForce RTX 3080 Ti
    Compute capability:      8.6
    Amount of global memory: 11.7629 GB
    Number of SMs:           80

---------------------------------------------------------------
Started running nep.
---------------------------------------------------------------


---------------------------------------------------------------
Started reading nep.in.
---------------------------------------------------------------

Input or default parameters:
    (default) model_type = potential.
    (default) calculation mode = train.
    (input)   use NEP version 4.
    (input)   number of atom types = 2.
        (default) type 0 (Cu with Z = 29) has force weight of 1.
        (default) type 1 (Se with Z = 34) has force weight of 1.
    (default) will not add the ZBL potential.
    (input)   radial cutoff = 7 A.
    (input)   angular cutoff = 5 A.
    (input)   n_max_radial = 8.
    (input)   n_max_angular = 6.
    (input)   basis_size_radial = 12.
    (input)   basis_size_angular = 12.
    (input)   l_max_3body = 4.
    (input)   l_max_4body = 2.
    (input)   l_max_5body = 0.
    (input)   number of neurons = 50.
    (default) lambda_1 = -1.
    (default) lambda_2 = -1.
    (input)   lambda_e = 1.
    (input)   lambda_f = 1.
    (input)   lambda_v = 0.2.
    (default) lambda_shear = 1.
    (default) force_delta = 0.
    (input)   batch size = 1000.
    (input)   population size = 50.
    (input)   maximum number of generations = 250000.
Some calculated parameters:
    number of radial descriptor components = 9.
    number of angular descriptor components = 35.
    total number of descriptor components = 44.
    NN architecture = 44-50-1.
    number of NN parameters to be optimized = 4601.
    number of descriptor parameters to be optimized = 832.
    total number of parameters to be optimized = 5433.

---------------------------------------------------------------
Finished reading nep.in.
---------------------------------------------------------------


---------------------------------------------------------------
Started reading train.xyz.
---------------------------------------------------------------

Number of configurations = 510.
Number of devices = 1
Number of batches = 1
Hello, I changed the batch_size from 1000 to 510.

Batch 0:
Number of configurations = 510.

---------------------------------------------------------------
Constructing train_set in device  0.
Total number of atoms = 187420.
Number of atoms in the largest configuration = 596.
Number of configurations having virial = 510.
Radial descriptor with a cutoff of 7 A:
    Minimum number of neighbors for one atom = 61.
    Maximum number of neighbors for one atom = 100.
Angular descriptor with a cutoff of 5 A:
    Minimum number of neighbors for one atom = 18.
    Maximum number of neighbors for one atom = 44.
---------------------------------------------------------------


---------------------------------------------------------------
Started reading test.xyz.
---------------------------------------------------------------

Number of configurations = 210.

---------------------------------------------------------------
Constructing test_set in device  0.
Total number of atoms = 73840.
Number of atoms in the largest configuration = 596.
Number of configurations having virial = 210.
Radial descriptor with a cutoff of 7 A:
    Minimum number of neighbors for one atom = 61.
    Maximum number of neighbors for one atom = 95.
Angular descriptor with a cutoff of 5 A:
    Minimum number of neighbors for one atom = 18.
    Maximum number of neighbors for one atom = 40.
---------------------------------------------------------------


---------------------------------------------------------------
Time used for initialization = 1.018000 s.
---------------------------------------------------------------


---------------------------------------------------------------
Started training.
---------------------------------------------------------------

Step    Total-Loss L1Reg-Loss L2Reg-Loss RMSE-E-Train RMSE-F-Train RMSE-V-Train RMSE-E-Test  RMSE-F-Test  RMSE-V-Test  
100     0.33187    0.03192    0.03932    0.01491      0.22050      0.12611      0.01691      0.20514      0.14521      
200     0.30427    0.03249    0.04026    0.01377      0.19566      0.11043      0.01159      0.19233      0.14425      
300     0.28641    0.03292    0.04136    0.01069      0.17933      0.11049      0.01200      0.17641      0.14823      
400     0.26886    0.03290    0.04104    0.00861      0.16982      0.08241      0.00871      0.16643      0.09982      
500     0.28448    0.03649    0.04586    0.01308      0.17302      0.08009      0.00838      0.16529      0.06158      
600     0.28198    0.03811    0.04770    0.00947      0.16938      0.08662      0.00843      0.17362      0.05738      
700     0.26351    0.03708    0.04635    0.00999      0.15502      0.07532      0.00993      0.14621      0.06736      
800     0.29397    0.04269    0.05355    0.01097      0.16546      0.10652      0.00957      0.16926      0.05206      
900     0.28618    0.04314    0.05409    0.00938      0.16961      0.04975      0.00971      0.16396      0.04340      
1000    0.28494    0.04415    0.05544    0.00984      0.16717      0.04172      0.01104      0.15683      0.05077      
1100    0.28442    0.04511    0.05650    0.00874      0.16394      0.05065      0.00844      0.16706      0.04380      
1200    0.28842    0.04693    0.05892    0.01219      0.15488      0.07748      0.01118      0.15268      0.09986      
1300    0.28607    0.04757    0.05958    0.01117      0.15770      0.05027      0.01034      0.14913      0.04527      
1400    0.30452    0.05132    0.06480    0.01354      0.16018      0.07339      0.01006      0.15614      0.06297      
1500    0.30014    0.05169    0.06508    0.01207      0.16171      0.04796      0.00756      0.16393      0.05173      
1600    0.29445    0.05180    0.06523    0.00813      0.15437      0.07466      0.01045      0.14912      0.09900      
1700    0.28478    0.05067    0.06401    0.00920      0.15216      0.04368      0.00989      0.15094      0.05662      
1800    0.28007    0.05058    0.06374    0.00943      0.14642      0.04950      0.00587      0.14353      0.04327      
1900    0.28820    0.05273    0.06679    0.00980      0.14896      0.04958      0.00703      0.14629      0.05180      
2000    0.28402    0.05245    0.06648    0.00886      0.14058      0.07822      0.00989      0.14078      0.05434      
2100    0.29070    0.05448    0.06899    0.00692      0.15029      0.05014      0.00717      0.14379      0.03551      
2200    0.27988    0.05293    0.06704    0.00791      0.13970      0.06146      0.00773      0.13521      0.07314      
2300    0.28547    0.05466    0.06910    0.00632      0.14450      0.05444      0.00600      0.13548      0.04577      
2400    0.28387    0.05500    0.06938    0.00708      0.14182      0.05289      0.00666      0.13489      0.03268      
2500    0.28846    0.05613    0.07128    0.01028      0.14111      0.04830      0.01313      0.13444      0.05338      
2600    0.29239    0.05725    0.07276    0.00833      0.14480      0.04627      0.01000      0.13660      0.02881      
2700    0.29648    0.05876    0.07484    0.00785      0.14611      0.04469      0.00683      0.14550      0.05238      
2800    0.28489    0.05691    0.07260    0.00564      0.14295      0.03389      0.00667      0.13679      0.03853      
2900    0.28429    0.05745    0.07332    0.00856      0.13710      0.03927      0.00786      0.13874      0.03134      
3000    0.28678    0.05846    0.07465    0.00725      0.13840      0.04010      0.00684      0.13975      0.03176      
3100    0.28170    0.05797    0.07407    0.00778      0.13438      0.03752      0.00630      0.13349      0.03901      
3200    0.28505    0.05895    0.07540    0.00786      0.13567      0.03582      0.00676      0.13004      0.03458      
3300    0.28598    0.05975    0.07638    0.00719      0.13363      0.04512      0.00979      0.13033      0.04694      
3400    0.28041    0.05908    0.07537    0.00559      0.13133      0.04522      0.00457      0.13201      0.03708      
3500    0.29173    0.06180    0.07900    0.00797      0.13707      0.02949      0.00510      0.13820      0.02630      
3600    0.26697    0.05680    0.07251    0.00541      0.12553      0.03361      0.00545      0.12044      0.04113      
3700    0.27583    0.05898    0.07529    0.00966      0.12583      0.03035      0.00982      0.12289      0.02696      
3800    0.27820    0.06000    0.07665    0.00606      0.12800      0.03741      0.00698      0.12279      0.03816      
3900    0.27981    0.06060    0.07768    0.00645      0.12524      0.04918      0.00706      0.12419      0.05260      
4000    0.27620    0.06024    0.07705    0.00548      0.12707      0.03180      0.00513      0.12372      0.04088      
4100    0.24779    0.05426    0.06937    0.00471      0.11404      0.02702      0.00483      0.11313      0.03131      
4200    0.26469    0.05834    0.07450    0.00465      0.11804      0.04580      0.00529      0.11453      0.02734      
4300    0.26850    0.05949    0.07591    0.00388      0.12332      0.02948      0.00496      0.12103      0.03227      
4400    0.26622    0.05937    0.07571    0.00877      0.11762      0.02374      0.00703      0.11397      0.02521      
4500    0.26687    0.05967    0.07641    0.00752      0.11549      0.03889      0.00729      0.11354      0.03810      
4600    0.25745    0.05760    0.07375    0.00530      0.11504      0.02885      0.00540      0.11107      0.02456      
4700    0.27558    0.06203    0.07967    0.00555      0.11595      0.06188      0.00731      0.11549      0.07958      
4800    0.26733    0.06057    0.07775    0.00565      0.11824      0.02560      0.00733      0.11928      0.02852      
4900    0.26807    0.06111    0.07852    0.00483      0.11797      0.02817      0.00534      0.11556      0.03552      
5000    0.26382    0.06041    0.07757    0.00496      0.11373      0.03580      0.00578      0.11217      0.03175      
5100    0.27075    0.06216    0.07997    0.00610      0.11685      0.02836      0.00543      0.11352      0.02918      
5200    0.27745    0.06389    0.08226    0.00459      0.12056      0.03074      0.00508      0.11869      0.03544      
5300    0.27451    0.06327    0.08160    0.00498      0.12044      0.02113      0.00392      0.11520      0.02322      
5400    0.27431    0.06341    0.08193    0.00532      0.11915      0.02251      0.00625      0.11528      0.01942      
5500    0.25941    0.06023    0.07779    0.00460      0.11147      0.02663      0.00483      0.10977      0.03217      
5600    0.26275    0.06122    0.07919    0.00519      0.11182      0.02666      0.00533      0.11086      0.02650      
5700    0.26515    0.06208    0.08031    0.00428      0.11273      0.02876      0.00489      0.11062      0.02746      
5800    0.25974    0.06111    0.07895    0.00515      0.11001      0.02257      0.00451      0.10787      0.02109      
5900    0.25879    0.06104    0.07890    0.00647      0.10755      0.02420      0.00502      0.10760      0.01760      
6000    0.25791    0.06108    0.07881    0.00567      0.10810      0.02122      0.00743      0.10815      0.02510      
6100    0.26651    0.06339    0.08182    0.00354      0.11144      0.03151      0.00402      0.11268      0.03089      
6200    0.26543    0.06319    0.08181    0.00684      0.10649      0.03549      0.00791      0.10509      0.04331      
6300    0.25830    0.06174    0.07994    0.00487      0.10715      0.02299      0.00468      0.10439      0.02274      
6400    0.26946    0.06453    0.08367    0.00491      0.11050      0.02929      0.00493      0.10770      0.02743      
6500    0.26954    0.06456    0.08393    0.00558      0.10684      0.04318      0.00658      0.10497      0.04860      
6600    0.26624    0.06419    0.08319    0.00556      0.10757      0.02863      0.00671      0.10557      0.03541      
6700    0.26063    0.06288    0.08160    0.00577      0.10636      0.02007      0.00752      0.10462      0.02106      
6800    0.26045    0.06318    0.08186    0.00629      0.10422      0.02449      0.00528      0.10376      0.02506      
6900    0.24590    0.05972    0.07765    0.00426      0.10055      0.01860      0.00543      0.09968      0.01945      
7000    0.25133    0.06111    0.07963    0.00354      0.10254      0.02255      0.00379      0.10154      0.02294      
7100    0.25911    0.06312    0.08229    0.00463      0.10486      0.02104      0.00503      0.10239      0.02159      
7200    0.25121    0.06142    0.08012    0.00645      0.09944      0.01893      0.00565      0.09828      0.02182      
7300    0.25362    0.06222    0.08106    0.00504      0.10006      0.02619      0.00399      0.09723      0.02377      
7400    0.25763    0.06328    0.08251    0.00498      0.10062      0.03120      0.00571      0.09856      0.03868      
7500    0.25281    0.06233    0.08127    0.00320      0.10169      0.02157      0.00351      0.09853      0.02581      
7600    0.25330    0.06268    0.08185    0.00406      0.10026      0.02227      0.00477      0.09853      0.02522      
7700    0.25508    0.06323    0.08260    0.00294      0.10257      0.01872      0.00327      0.09922      0.02129      
7800    0.25697    0.06395    0.08346    0.00654      0.09882      0.02099      0.00470      0.09685      0.01948      
7900    0.25294    0.06312    0.08234    0.00426      0.09886      0.02177      0.00455      0.09694      0.02323      
8000    0.25360    0.06342    0.08275    0.00469      0.09852      0.02117      0.00465      0.09609      0.02057      
8100    0.25696    0.06455    0.08426    0.00580      0.09620      0.03067      0.00707      0.09323      0.03521      
8200    0.25412    0.06377    0.08338    0.00404      0.09821      0.02363      0.00461      0.09678      0.01841      
8300    0.25541    0.06421    0.08399    0.00382      0.09902      0.02188      0.00454      0.09771      0.02190      
8400    0.25173    0.06351    0.08294    0.00389      0.09811      0.01635      0.00426      0.09657      0.01896      
8500    0.25429    0.06426    0.08385    0.00392      0.09707      0.02588      0.00444      0.09390      0.01977      
8600    0.25043    0.06349    0.08296    0.00424      0.09557      0.02086      0.00410      0.09318      0.02041      
8700    0.25591    0.06486    0.08490    0.00547      0.09512      0.02782      0.00613      0.09476      0.02456      
8800    0.24847    0.06301    0.08257    0.00375      0.09536      0.01896      0.00445      0.09478      0.01692      
8900    0.24429    0.06196    0.08125    0.00420      0.09328      0.01799      0.00556      0.09323      0.01997      
9000    0.24675    0.06283    0.08220    0.00408      0.09417      0.01738      0.00532      0.09380      0.01782      
9100    0.25147    0.06405    0.08392    0.00460      0.09515      0.01878      0.00529      0.09367      0.02200      
9200    0.24764    0.06319    0.08263    0.00445      0.09356      0.01905      0.00398      0.09151      0.02045      
9300    0.24720    0.06315    0.08266    0.00381      0.09421      0.01685      0.00477      0.09276      0.01608      
9400    0.24905    0.06378    0.08340    0.00404      0.09419      0.01824      0.00316      0.09281      0.01903      
9500    0.24538    0.06282    0.08230    0.00316      0.09365      0.01727      0.00362      0.09226      0.01808      
9600    0.24966    0.06400    0.08389    0.00341      0.09442      0.01971      0.00442      0.09295      0.01991      
9700    0.25346    0.06497    0.08521    0.00530      0.09497      0.01505      0.00600      0.09458      0.01539      
9800    0.24877    0.06390    0.08369    0.00364      0.09434      0.01600      0.00446      0.09316      0.01775      
9900    0.25195    0.06477    0.08479    0.00334      0.09453      0.02254      0.00377      0.09172      0.02318      
10000   0.24989    0.06427    0.08425    0.00416      0.09261      0.02303      0.00534      0.09099      0.02063      
10100   0.24891    0.06411    0.08402    0.00406      0.09309      0.01817      0.00429      0.09064      0.01966      
10200   0.24980    0.06443    0.08440    0.00377      0.09388      0.01662      0.00380      0.09170      0.01780      
10300   0.25366    0.06550    0.08570    0.00582      0.09309      0.01774      0.00562      0.09255      0.01709      
10400   0.25218    0.06503    0.08529    0.00290      0.09417      0.02402      0.00354      0.09257      0.02792      
10500   0.25267    0.06525    0.08576    0.00419      0.09415      0.01661      0.00504      0.09309      0.01654      
10600   0.24788    0.06405    0.08414    0.00396      0.09208      0.01826      0.00517      0.09112      0.01824      
10700   0.25092    0.06491    0.08529    0.00415      0.09300      0.01790      0.00484      0.09085      0.01881      
10800   0.25084    0.06495    0.08517    0.00431      0.09193      0.02239      0.00426      0.08988      0.02470      
10900   0.25233    0.06536    0.08592    0.00399      0.09289      0.02082      0.00381      0.09176      0.01933      
11000   0.25016    0.06470    0.08512    0.00296      0.09303      0.02171      0.00340      0.09186      0.01943      
11100   0.24646    0.06378    0.08409    0.00366      0.09142      0.01758      0.00447      0.09093      0.01567      
11200   0.24842    0.06431    0.08489    0.00493      0.08997      0.02161      0.00504      0.08889      0.01824      
11300   0.25023    0.06494    0.08539    0.00409      0.09149      0.02162      0.00531      0.08862      0.02062      
11400   0.24654    0.06417    0.08434    0.00547      0.08929      0.01639      0.00501      0.08853      0.01757      
11500   0.24709    0.06428    0.08474    0.00357      0.08909      0.02702      0.00370      0.08767      0.03135      
11600   0.24766    0.06451    0.08497    0.00287      0.09203      0.01641      0.00365      0.09035      0.01795      
11700   0.24971    0.06511    0.08571    0.00504      0.09076      0.01548      0.00497      0.08910      0.01713      
11800   0.24931    0.06506    0.08563    0.00442      0.09078      0.01710      0.00385      0.08824      0.01801      
11900   0.24503    0.06396    0.08415    0.00394      0.08905      0.01962      0.00495      0.08730      0.02236      
12000   0.24398    0.06378    0.08379    0.00362      0.08934      0.01720      0.00351      0.08818      0.01909      
12100   0.24170    0.06316    0.08305    0.00414      0.08814      0.01608      0.00458      0.08730      0.01761      
12200   0.24342    0.06369    0.08379    0.00364      0.08863      0.01837      0.00475      0.08667      0.01967      
12300   0.23713    0.06206    0.08149    0.00302      0.08743      0.01561      0.00330      0.08602      0.01706      
12400   0.24214    0.06352    0.08340    0.00387      0.08787      0.01739      0.00440      0.08547      0.01761      
12500   0.24104    0.06340    0.08310    0.00306      0.08811      0.01686      0.00385      0.08728      0.01804      
12600   0.23946    0.06290    0.08243    0.00331      0.08769      0.01565      0.00385      0.08672      0.01706      
12700   0.23854    0.06269    0.08231    0.00332      0.08666      0.01775      0.00383      0.08398      0.01982      
12800   0.24066    0.06329    0.08311    0.00300      0.08779      0.01731      0.00355      0.08675      0.01904      
12900   0.24041    0.06332    0.08321    0.00337      0.08616      0.02181      0.00436      0.08478      0.02564      
13000   0.23572    0.06215    0.08160    0.00308      0.08491      0.01994      0.00371      0.08320      0.01820      
13100   0.23655    0.06236    0.08204    0.00323      0.08541      0.01757      0.00396      0.08349      0.01743      
13200   0.23859    0.06298    0.08282    0.00255      0.08575      0.02239      0.00308      0.08433      0.01995      
13300   0.24159    0.06394    0.08409    0.00267      0.08701      0.01945      0.00293      0.08586      0.02381      
13400   0.24072    0.06379    0.08389    0.00322      0.08647      0.01676      0.00341      0.08484      0.01982      
13500   0.23898    0.06330    0.08315    0.00319      0.08607      0.01636      0.00347      0.08494      0.01917      
13600   0.23326    0.06174    0.08130    0.00320      0.08395      0.01531      0.00285      0.08180      0.01678      
13700   0.23819    0.06320    0.08281    0.00337      0.08492      0.01951      0.00282      0.08306      0.02115      
13800   0.23544    0.06239    0.08161    0.00365      0.08418      0.01809      0.00355      0.08273      0.01704      
13900   0.23240    0.06165    0.08070    0.00280      0.08410      0.01573      0.00365      0.08226      0.01756      
14000   0.23698    0.06291    0.08232    0.00389      0.08497      0.01440      0.00392      0.08280      0.01582      
14100   0.23863    0.06334    0.08300    0.00374      0.08488      0.01833      0.00356      0.08240      0.01963      
14200   0.23654    0.06293    0.08229    0.00325      0.08456      0.01752      0.00312      0.08213      0.01768      
14300   0.23287    0.06196    0.08118    0.00290      0.08346      0.01686      0.00348      0.08138      0.01796      
14400   0.23336    0.06222    0.08150    0.00292      0.08257      0.02076      0.00336      0.08035      0.01798      
14500   0.23169    0.06183    0.08093    0.00305      0.08234      0.01769      0.00342      0.08038      0.01679      
14600   0.23008    0.06134    0.08050    0.00286      0.08182      0.01782      0.00299      0.08014      0.01846      
14700   0.23242    0.06199    0.08128    0.00347      0.08199      0.01851      0.00317      0.08052      0.01971      
14800   0.23348    0.06231    0.08170    0.00288      0.08352      0.01537      0.00258      0.08144      0.01695      
14900   0.23335    0.06242    0.08174    0.00312      0.08270      0.01683      0.00375      0.08138      0.01841      
15000   0.22758    0.06090    0.07961    0.00273      0.08105      0.01650      0.00284      0.07912      0.01733      
15100   0.23350    0.06234    0.08162    0.00321      0.08307      0.01631      0.00340      0.08170      0.01671      
15200   0.23435    0.06264    0.08190    0.00281      0.08358      0.01710      0.00293      0.08184      0.01810      
15300   0.23071    0.06167    0.08059    0.00279      0.08230      0.01677      0.00339      0.08103      0.01803      
15400   0.22843    0.06104    0.07987    0.00350      0.08104      0.01489      0.00416      0.07928      0.01503      
15500   0.23180    0.06197    0.08107    0.00308      0.08182      0.01932      0.00343      0.08044      0.01949      
15600   0.23005    0.06163    0.08058    0.00328      0.08145      0.01557      0.00356      0.07982      0.01740      
15700   0.23100    0.06185    0.08102    0.00389      0.08137      0.01433      0.00413      0.08030      0.01617      
15800   0.23200    0.06208    0.08140    0.00294      0.08254      0.01515      0.00381      0.08045      0.01645      
15900   0.23111    0.06175    0.08114    0.00294      0.08250      0.01390      0.00341      0.08080      0.01591      
16000   0.23068    0.06185    0.08107    0.00355      0.08112      0.01547      0.00359      0.08018      0.01757      
16100   0.22805    0.06106    0.08017    0.00287      0.08062      0.01670      0.00323      0.08004      0.01724      
16200   0.22993    0.06146    0.08087    0.00268      0.08192      0.01500      0.00327      0.08029      0.01743      
16300   0.23388    0.06245    0.08205    0.00285      0.08371      0.01407      0.00263      0.08182      0.01596      
16400   0.23011    0.06171    0.08098    0.00332      0.08113      0.01483      0.00382      0.07983      0.01715      
16500   0.22709    0.06090    0.07985    0.00313      0.08033      0.01441      0.00296      0.07860      0.01649      
16600   0.23142    0.06202    0.08141    0.00255      0.08164      0.01901      0.00323      0.07980      0.02134      
16700   0.23029    0.06180    0.08121    0.00290      0.08114      0.01621      0.00344      0.07993      0.01881      
16800   0.22878    0.06144    0.08078    0.00280      0.08069      0.01535      0.00308      0.07985      0.01628      
16900   0.22708    0.06095    0.08014    0.00285      0.08003      0.01561      0.00323      0.07853      0.01771      
17000   0.22837    0.06130    0.08064    0.00275      0.08056      0.01556      0.00351      0.07945      0.01797      
17100   0.22709    0.06100    0.08027    0.00264      0.08028      0.01452      0.00314      0.07902      0.01624      
17200   0.22907    0.06148    0.08078    0.00286      0.08029      0.01830      0.00319      0.07841      0.01596      
17300   0.22715    0.06092    0.08022    0.00238      0.08007      0.01777      0.00292      0.07877      0.01986      
17400   0.22699    0.06100    0.08019    0.00222      0.07991      0.01842      0.00250      0.07803      0.02070      
17500   0.22672    0.06072    0.08013    0.00300      0.07989      0.01490      0.00394      0.07837      0.01719      
17600   0.22612    0.06066    0.07994    0.00319      0.07915      0.01593      0.00431      0.07789      0.01851      
17700   0.22753    0.06102    0.08045    0.00286      0.07958      0.01806      0.00326      0.07849      0.02064      
17800   0.22472    0.06027    0.07930    0.00237      0.07974      0.01524      0.00260      0.07814      0.01650      
17900   0.22329    0.05969    0.07878    0.00253      0.07904      0.01627      0.00289      0.07697      0.01696      
18000   0.22534    0.06029    0.07978    0.00336      0.07897      0.01470      0.00373      0.07754      0.01707      
18100   0.22449    0.06017    0.07934    0.00315      0.07893      0.01450      0.00388      0.07763      0.01506      
18200   0.22611    0.06060    0.07999    0.00281      0.07968      0.01519      0.00335      0.07929      0.01517      
18300   0.22587    0.06052    0.07987    0.00255      0.07946      0.01737      0.00279      0.07880      0.01791      
18400   0.22484    0.06026    0.07957    0.00301      0.07916      0.01420      0.00374      0.07784      0.01647      
18500   0.22529    0.06038    0.07981    0.00291      0.07924      0.01473      0.00395      0.07819      0.01693      
18600   0.22592    0.06044    0.07995    0.00287      0.07952      0.01570      0.00355      0.07848      0.01597      
18700   0.22182    0.05923    0.07848    0.00254      0.07857      0.01499      0.00304      0.07750      0.01632      
18800   0.22183    0.05920    0.07842    0.00255      0.07831      0.01673      0.00273      0.07716      0.01901      
18900   0.22119    0.05890    0.07828    0.00285      0.07798      0.01591      0.00318      0.07705      0.01611      
19000   0.22295    0.05959    0.07885    0.00263      0.07846      0.01709      0.00320      0.07737      0.01680      
19100   0.22074    0.05905    0.07797    0.00248      0.07831      0.01461      0.00293      0.07737      0.01605      
19200   0.22156    0.05937    0.07827    0.00226      0.07841      0.01628      0.00250      0.07675      0.01819      
19300   0.22189    0.05937    0.07835    0.00248      0.07853      0.01577      0.00295      0.07732      0.01581      
19400   0.22098    0.05901    0.07801    0.00248      0.07777      0.01849      0.00288      0.07681      0.01739      
19500   0.22097    0.05901    0.07797    0.00219      0.07834      0.01722      0.00262      0.07736      0.01815      
19600   0.22022    0.05884    0.07779    0.00224      0.07859      0.01372      0.00288      0.07724      0.01571      
19700   0.22026    0.05886    0.07773    0.00258      0.07833      0.01374      0.00303      0.07661      0.01512      
19800   0.21824    0.05848    0.07689    0.00258      0.07698      0.01654      0.00314      0.07570      0.01602      
19900   0.22142    0.05925    0.07805    0.00282      0.07787      0.01723      0.00287      0.07688      0.01609      
20000   0.21762    0.05819    0.07680    0.00300      0.07687      0.01381      0.00345      0.07551      0.01362      
20100   0.21841    0.05840    0.07710    0.00271      0.07717      0.01522      0.00345      0.07590      0.01688      
20200   0.21942    0.05867    0.07744    0.00265      0.07748      0.01585      0.00308      0.07673      0.01600      
20300   0.21768    0.05832    0.07676    0.00271      0.07706      0.01420      0.00337      0.07599      0.01642      
20400   0.21696    0.05811    0.07652    0.00205      0.07744      0.01415      0.00247      0.07591      0.01579      
20500   0.21695    0.05819    0.07637    0.00259      0.07669      0.01552      0.00305      0.07489      0.01787      
20600   0.21704    0.05805    0.07636    0.00236      0.07713      0.01573      0.00240      0.07605      0.01785      
20700   0.21781    0.05828    0.07669    0.00257      0.07739      0.01437      0.00325      0.07573      0.01649      
20800   0.21799    0.05839    0.07674    0.00213      0.07812      0.01311      0.00275      0.07707      0.01475      
20900   0.21789    0.05839    0.07673    0.00213      0.07728      0.01681      0.00246      0.07601      0.01809      
21000   0.21690    0.05798    0.07632    0.00216      0.07715      0.01646      0.00241      0.07523      0.01668      
21100   0.21586    0.05757    0.07602    0.00249      0.07701      0.01388      0.00299      0.07506      0.01553      
21200   0.21431    0.05718    0.07530    0.00246      0.07642      0.01470      0.00265      0.07489      0.01763      
21300   0.21555    0.05766    0.07580    0.00229      0.07686      0.01475      0.00267      0.07541      0.01475      
21400   0.21462    0.05735    0.07543    0.00249      0.07668      0.01338      0.00267      0.07470      0.01487      
21500   0.21575    0.05753    0.07580    0.00274      0.07694      0.01372      0.00342      0.07566      0.01513      
21600   0.21520    0.05750    0.07569    0.00223      0.07684      0.01469      0.00269      0.07557      0.01615      
21700   0.21286    0.05681    0.07479    0.00236      0.07616      0.01369      0.00303      0.07522      0.01511      
21800   0.21467    0.05729    0.07543    0.00293      0.07630      0.01359      0.00322      0.07386      0.01504      
21900   0.21486    0.05727    0.07549    0.00237      0.07723      0.01248      0.00271      0.07572      0.01357      
22000   0.21375    0.05686    0.07500    0.00249      0.07661      0.01391      0.00316      0.07457      0.01478      
22100   0.21337    0.05676    0.07490    0.00223      0.07613      0.01670      0.00289      0.07430      0.01524      
22200   0.21346    0.05685    0.07502    0.00274      0.07589      0.01482      0.00370      0.07450      0.01564      
22300   0.21395    0.05703    0.07522    0.00226      0.07675      0.01344      0.00246      0.07559      0.01427      
22400   0.21166    0.05641    0.07434    0.00191      0.07622      0.01388      0.00238      0.07518      0.01466      
22500   0.21271    0.05673    0.07477    0.00243      0.07599      0.01391      0.00281      0.07511      0.01438      
22600   0.21143    0.05644    0.07428    0.00266      0.07546      0.01297      0.00328      0.07416      0.01458      
22700   0.21170    0.05643    0.07442    0.00272      0.07556      0.01281      0.00276      0.07394      0.01435      
22800   0.21193    0.05644    0.07449    0.00262      0.07578      0.01298      0.00323      0.07410      0.01392      
22900   0.21390    0.05702    0.07510    0.00237      0.07636      0.01529      0.00292      0.07492      0.01501      
23000   0.21254    0.05672    0.07458    0.00278      0.07578      0.01343      0.00336      0.07441      0.01510      
23100   0.21402    0.05694    0.07503    0.00210      0.07682      0.01563      0.00254      0.07540      0.01561      
23200   0.21203    0.05635    0.07434    0.00267      0.07599      0.01342      0.00295      0.07459      0.01545      
23300   0.21102    0.05608    0.07384    0.00216      0.07608      0.01429      0.00243      0.07450      0.01595      
23400   0.20998    0.05560    0.07328    0.00252      0.07552      0.01528      0.00318      0.07422      0.01674      
23500   0.20887    0.05517    0.07268    0.00300      0.07543      0.01289      0.00279      0.07398      0.01435      
23600   0.20890    0.05510    0.07265    0.00248      0.07584      0.01418      0.00252      0.07485      0.01467      
23700   0.20809    0.05483    0.07223    0.00190      0.07621      0.01457      0.00224      0.07492      0.01541      
23800   0.20762    0.05463    0.07203    0.00256      0.07589      0.01258      0.00293      0.07439      0.01405      
23900   0.20631    0.05417    0.07140    0.00212      0.07601      0.01299      0.00251      0.07463      0.01397      
24000   0.20496    0.05392    0.07086    0.00230      0.07525      0.01314      0.00239      0.07410      0.01493      
24100   0.20436    0.05366    0.07071    0.00211      0.07529      0.01291      0.00241      0.07407      0.01360      
24200   0.20396    0.05351    0.07044    0.00233      0.07511      0.01286      0.00284      0.07395      0.01477      
24300   0.20419    0.05343    0.07054    0.00246      0.07518      0.01293      0.00287      0.07348      0.01353      
24400   0.20378    0.05336    0.07039    0.00247      0.07513      0.01216      0.00316      0.07361      0.01337      
24500   0.20395    0.05345    0.07044    0.00212      0.07537      0.01287      0.00254      0.07389      0.01377      
24600   0.20299    0.05303    0.06996    0.00224      0.07517      0.01294      0.00269      0.07384      0.01404      
24700   0.20213    0.05275    0.06963    0.00218      0.07491      0.01335      0.00262      0.07361      0.01440      
24800   0.20192    0.05279    0.06958    0.00251      0.07445      0.01292      0.00330      0.07271      0.01452      
24900   0.20231    0.05281    0.06949    0.00236      0.07512      0.01268      0.00249      0.07349      0.01427      
25000   0.20028    0.05218    0.06870    0.00216      0.07428      0.01479      0.00254      0.07275      0.01690      
25100   0.20029    0.05225    0.06867    0.00241      0.07453      0.01212      0.00308      0.07305      0.01323      
25200   0.20058    0.05217    0.06869    0.00229      0.07488      0.01273      0.00272      0.07364      0.01313      
25300   0.20040    0.05195    0.06858    0.00218      0.07498      0.01357      0.00268      0.07350      0.01590      
25400   0.19994    0.05181    0.06839    0.00211      0.07502      0.01309      0.00236      0.07381      0.01523      
25500   0.19861    0.05142    0.06781    0.00215      0.07461      0.01311      0.00271      0.07261      0.01402      
25600   0.19896    0.05140    0.06776    0.00258      0.07469      0.01269      0.00262      0.07350      0.01377      
25700   0.19804    0.05109    0.06743    0.00242      0.07468      0.01210      0.00270      0.07322      0.01335      
25800   0.19729    0.05088    0.06707    0.00195      0.07497      0.01215      0.00223      0.07326      0.01392      
25900   0.19634    0.05056    0.06662    0.00222      0.07437      0.01289      0.00269      0.07305      0.01461      
26000   0.19599    0.05035    0.06638    0.00211      0.07465      0.01250      0.00231      0.07318      0.01446      
26100   0.19498    0.05017    0.06596    0.00217      0.07404      0.01314      0.00268      0.07241      0.01464      
26200   0.19404    0.04978    0.06556    0.00196      0.07381      0.01464      0.00230      0.07214      0.01689      
26300   0.19499    0.05005    0.06579    0.00262      0.07403      0.01246      0.00260      0.07300      0.01362      
26400   0.19328    0.04959    0.06525    0.00197      0.07402      0.01226      0.00220      0.07268      0.01321      
26500   0.19377    0.04961    0.06531    0.00229      0.07385      0.01350      0.00296      0.07221      0.01257      
26600   0.19339    0.04947    0.06513    0.00219      0.07381      0.01397      0.00261      0.07224      0.01487      
26700   0.19167    0.04899    0.06452    0.00194      0.07385      0.01184      0.00248      0.07263      0.01283      
26800   0.19114    0.04880    0.06425    0.00226      0.07348      0.01173      0.00277      0.07220      0.01294      
26900   0.19190    0.04901    0.06454    0.00225      0.07365      0.01230      0.00261      0.07235      0.01390      
27000   0.19110    0.04884    0.06411    0.00182      0.07370      0.01319      0.00210      0.07223      0.01394      
27100   0.18972    0.04836    0.06357    0.00180      0.07351      0.01237      0.00218      0.07199      0.01265      
27200   0.18977    0.04830    0.06358    0.00180      0.07332      0.01385      0.00214      0.07190      0.01528      
27300   0.18956    0.04811    0.06336    0.00192      0.07340      0.01385      0.00251      0.07182      0.01477      
27400   0.18856    0.04779    0.06306    0.00196      0.07308      0.01338      0.00232      0.07152      0.01414      
27500   0.18782    0.04772    0.06265    0.00203      0.07298      0.01222      0.00231      0.07150      0.01360      
27600   0.18895    0.04802    0.06306    0.00223      0.07292      0.01365      0.00276      0.07100      0.01325      
27700   0.18689    0.04738    0.06217    0.00213      0.07268      0.01261      0.00254      0.07083      0.01353      
27800   0.18623    0.04706    0.06192    0.00191      0.07279      0.01275      0.00229      0.07110      0.01465      
27900   0.18608    0.04696    0.06172    0.00191      0.07290      0.01295      0.00225      0.07106      0.01511      
28000   0.18586    0.04697    0.06166    0.00229      0.07249      0.01226      0.00289      0.07100      0.01337      
28100   0.18549    0.04683    0.06147    0.00223      0.07260      0.01180      0.00259      0.07135      0.01319      
28200   0.18509    0.04670    0.06143    0.00178      0.07247      0.01360      0.00214      0.07094      0.01495      
28300   0.18451    0.04641    0.06106    0.00213      0.07246      0.01230      0.00261      0.07120      0.01251      
28400   0.18538    0.04674    0.06149    0.00241      0.07233      0.01211      0.00296      0.07078      0.01363      
28500   0.18499    0.04663    0.06127    0.00228      0.07243      0.01191      0.00301      0.07072      0.01302      
28600   0.18424    0.04637    0.06094    0.00218      0.07226      0.01247      0.00271      0.07067      0.01345      
28700   0.18428    0.04628    0.06097    0.00175      0.07258      0.01349      0.00206      0.07122      0.01547      
28800   0.18416    0.04611    0.06080    0.00187      0.07282      0.01277      0.00241      0.07095      0.01249      
28900   0.18333    0.04588    0.06053    0.00228      0.07223      0.01205      0.00292      0.07079      0.01236      
29000   0.18353    0.04584    0.06056    0.00178      0.07285      0.01249      0.00214      0.07143      0.01369      
29100   0.18251    0.04554    0.06014    0.00184      0.07252      0.01238      0.00228      0.07114      0.01382      
29200   0.18258    0.04561    0.06020    0.00219      0.07205      0.01264      0.00257      0.07079      0.01456      
29300   0.18155    0.04514    0.05953    0.00202      0.07246      0.01203      0.00220      0.07098      0.01329      
29400   0.18172    0.04518    0.05968    0.00217      0.07228      0.01208      0.00247      0.07095      0.01351      
29500   0.18128    0.04510    0.05949    0.00194      0.07224      0.01255      0.00252      0.07086      0.01430      
29600   0.18153    0.04510    0.05953    0.00214      0.07227      0.01247      0.00244      0.07067      0.01300      
29700   0.17969    0.04463    0.05885    0.00195      0.07181      0.01227      0.00253      0.07026      0.01276      
29800   0.18024    0.04476    0.05892    0.00202      0.07211      0.01209      0.00264      0.07052      0.01320      
29900   0.18105    0.04498    0.05927    0.00211      0.07238      0.01152      0.00239      0.07042      0.01222      
30000   0.18058    0.04496    0.05907    0.00218      0.07179      0.01288      0.00238      0.07029      0.01438      
30100   0.17954    0.04454    0.05868    0.00208      0.07169      0.01275      0.00282      0.07040      0.01313      
30200   0.17993    0.04462    0.05876    0.00198      0.07216      0.01205      0.00233      0.07059      0.01339      
30300   0.17916    0.04445    0.05849    0.00191      0.07165      0.01338      0.00230      0.07033      0.01330      
30400   0.17872    0.04432    0.05843    0.00193      0.07169      0.01178      0.00246      0.07058      0.01256      
30500   0.18001    0.04466    0.05881    0.00191      0.07202      0.01304      0.00246      0.07109      0.01459      
30600   0.17990    0.04461    0.05872    0.00214      0.07210      0.01164      0.00246      0.07054      0.01282      
30700   0.17875    0.04430    0.05837    0.00219      0.07164      0.01128      0.00265      0.07016      0.01193      
30800   0.17729    0.04384    0.05784    0.00197      0.07140      0.01125      0.00257      0.07055      0.01209      
30900   0.17862    0.04421    0.05822    0.00210      0.07166      0.01215      0.00266      0.07035      0.01300      
31000   0.17756    0.04391    0.05781    0.00201      0.07146      0.01183      0.00238      0.07001      0.01312      
31100   0.17731    0.04362    0.05764    0.00185      0.07153      0.01333      0.00220      0.07033      0.01457      
31200   0.17729    0.04359    0.05762    0.00194      0.07146      0.01341      0.00232      0.07031      0.01455      
31300   0.17617    0.04325    0.05716    0.00218      0.07125      0.01167      0.00266      0.07016      0.01340      
31400   0.17642    0.04316    0.05717    0.00223      0.07147      0.01193      0.00290      0.07002      0.01348      
31500   0.17615    0.04306    0.05707    0.00211      0.07124      0.01333      0.00284      0.07004      0.01430      
31600   0.17566    0.04288    0.05678    0.00209      0.07150      0.01203      0.00236      0.07005      0.01375      
31700   0.17612    0.04308    0.05694    0.00219      0.07152      0.01202      0.00287      0.07001      0.01290      
31800   0.17536    0.04282    0.05668    0.00189      0.07151      0.01233      0.00218      0.07038      0.01334      
31900   0.17516    0.04269    0.05656    0.00183      0.07165      0.01218      0.00227      0.07069      0.01399      
32000   0.17537    0.04276    0.05660    0.00209      0.07162      0.01154      0.00240      0.07036      0.01285      
32100   0.17370    0.04223    0.05595    0.00190      0.07105      0.01288      0.00234      0.06987      0.01473      
32200   0.17365    0.04221    0.05587    0.00171      0.07153      0.01167      0.00209      0.07032      0.01297      
32300   0.17279    0.04196    0.05553    0.00199      0.07085      0.01234      0.00259      0.06949      0.01365      
32400   0.17226    0.04166    0.05527    0.00222      0.07069      0.01208      0.00287      0.06939      0.01396      
32500   0.17165    0.04146    0.05503    0.00207      0.07073      0.01176      0.00252      0.06956      0.01248      
32600   0.17130    0.04138    0.05478    0.00192      0.07078      0.01224      0.00239      0.06915      0.01362      
32700   0.17127    0.04132    0.05478    0.00202      0.07082      0.01167      0.00244      0.06934      0.01290      
32800   0.17155    0.04136    0.05482    0.00191      0.07068      0.01391      0.00251      0.06921      0.01512      
32900   0.17031    0.04097    0.05440    0.00197      0.07055      0.01210      0.00251      0.06908      0.01257      
33000   0.16988    0.04081    0.05424    0.00194      0.07062      0.01139      0.00246      0.06929      0.01233      
33100   0.17000    0.04078    0.05417    0.00213      0.07054      0.01193      0.00277      0.06928      0.01276      
33200   0.16928    0.04045    0.05383    0.00214      0.07046      0.01205      0.00260      0.06884      0.01326      
33300   0.16869    0.04027    0.05362    0.00201      0.07043      0.01179      0.00232      0.06900      0.01298      
33400   0.16831    0.04005    0.05333    0.00188      0.07042      0.01314      0.00232      0.06897      0.01299      
33500   0.16757    0.03993    0.05311    0.00193      0.07024      0.01180      0.00253      0.06867      0.01207      
33600   0.16803    0.04000    0.05318    0.00213      0.07050      0.01112      0.00274      0.06882      0.01191      
33700   0.16774    0.03987    0.05304    0.00198      0.07037      0.01236      0.00241      0.06862      0.01339      
33800   0.16780    0.04001    0.05309    0.00183      0.07058      0.01143      0.00222      0.06898      0.01204      
33900   0.16762    0.03986    0.05301    0.00181      0.07043      0.01260      0.00230      0.06890      0.01328      
34000   0.16758    0.03978    0.05289    0.00179      0.07084      0.01133      0.00209      0.06947      0.01256      
34100   0.16683    0.03960    0.05260    0.00197      0.07038      0.01141      0.00242      0.06896      0.01163      
34200   0.16652    0.03948    0.05252    0.00197      0.07025      0.01146      0.00239      0.06923      0.01190      
34300   0.16629    0.03942    0.05236    0.00192      0.07017      0.01207      0.00237      0.06877      0.01258      
34400   0.16561    0.03913    0.05207    0.00188      0.07025      0.01140      0.00234      0.06877      0.01177      
34500   0.16589    0.03933    0.05217    0.00192      0.07016      0.01151      0.00233      0.06881      0.01169      
34600   0.16517    0.03901    0.05189    0.00190      0.07009      0.01134      0.00224      0.06891      0.01232      
34700   0.16507    0.03897    0.05187    0.00192      0.07006      0.01124      0.00237      0.06851      0.01183      
34800   0.16468    0.03896    0.05175    0.00181      0.06987      0.01145      0.00237      0.06878      0.01229      
34900   0.16442    0.03865    0.05160    0.00178      0.07004      0.01176      0.00211      0.06915      0.01282      
35000   0.16411    0.03863    0.05143    0.00185      0.06994      0.01135      0.00231      0.06866      0.01269      
35100   0.16360    0.03833    0.05123    0.00188      0.06984      0.01156      0.00234      0.06860      0.01287      
35200   0.16423    0.03845    0.05133    0.00217      0.06994      0.01168      0.00275      0.06887      0.01292      
35300   0.16357    0.03832    0.05109    0.00186      0.07003      0.01138      0.00220      0.06897      0.01241      
35400   0.16391    0.03830    0.05119    0.00198      0.07016      0.01141      0.00219      0.06890      0.01276      
35500   0.16317    0.03815    0.05092    0.00178      0.06998      0.01173      0.00225      0.06877      0.01327      
35600   0.16237    0.03780    0.05058    0.00177      0.06977      0.01228      0.00220      0.06879      0.01400      
35700   0.16243    0.03783    0.05059    0.00166      0.06986      0.01250      0.00211      0.06876      0.01410      
35800   0.16234    0.03767    0.05055    0.00187      0.06987      0.01188      0.00239      0.06865      0.01326      
35900   0.16161    0.03745    0.05019    0.00159      0.06991      0.01241      0.00195      0.06875      0.01400      
36000   0.16176    0.03742    0.05019    0.00164      0.06991      0.01297      0.00201      0.06875      0.01460      
36100   0.16133    0.03726    0.04988    0.00178      0.07006      0.01179      0.00211      0.06903      0.01307      
36200   0.16038    0.03704    0.04955    0.00192      0.06953      0.01172      0.00231      0.06834      0.01305      
36300   0.16024    0.03687    0.04941    0.00175      0.06991      0.01146      0.00225      0.06889      0.01262      
36400   0.15991    0.03679    0.04926    0.00172      0.06961      0.01259      0.00217      0.06852      0.01446      
36500   0.16028    0.03678    0.04926    0.00198      0.06984      0.01205      0.00239      0.06869      0.01271      
36600   0.15928    0.03659    0.04899    0.00186      0.06951      0.01163      0.00232      0.06843      0.01300      
36700   0.15847    0.03635    0.04868    0.00170      0.06946      0.01139      0.00220      0.06830      0.01248      
36800   0.15864    0.03628    0.04866    0.00176      0.06968      0.01126      0.00200      0.06866      0.01220      
36900   0.15833    0.03612    0.04848    0.00172      0.06967      0.01169      0.00205      0.06844      0.01300      
37000   0.15837    0.03610    0.04853    0.00196      0.06934      0.01219      0.00226      0.06826      0.01333      
37100   0.15733    0.03580    0.04817    0.00178      0.06937      0.01106      0.00222      0.06837      0.01194      
37200   0.15757    0.03584    0.04820    0.00184      0.06947      0.01115      0.00240      0.06814      0.01235      
37300   0.15715    0.03564    0.04807    0.00192      0.06932      0.01099      0.00253      0.06810      0.01179      
37400   0.15709    0.03565    0.04798    0.00185      0.06926      0.01182      0.00209      0.06813      0.01331      
37500   0.15674    0.03563    0.04778    0.00197      0.06913      0.01111      0.00234      0.06791      0.01182      
37600   0.15669    0.03555    0.04768    0.00205      0.06918      0.01111      0.00233      0.06803      0.01168      
37700   0.15624    0.03533    0.04753    0.00183      0.06923      0.01163      0.00230      0.06808      0.01219      
37800   0.15593    0.03530    0.04743    0.00179      0.06914      0.01139      0.00239      0.06800      0.01206      
37900   0.15565    0.03512    0.04728    0.00180      0.06906      0.01200      0.00230      0.06793      0.01303      
38000   0.15507    0.03499    0.04709    0.00192      0.06875      0.01156      0.00253      0.06772      0.01242      
38100   0.15509    0.03495    0.04701    0.00178      0.06911      0.01122      0.00229      0.06816      0.01224      
38200   0.15543    0.03499    0.04703    0.00170      0.06933      0.01191      0.00194      0.06803      0.01305      
38300   0.15466    0.03482    0.04684    0.00179      0.06900      0.01103      0.00233      0.06792      0.01157      
38400   0.15493    0.03488    0.04681    0.00189      0.06904      0.01156      0.00250      0.06808      0.01185      
38500   0.15486    0.03485    0.04673    0.00165      0.06929      0.01173      0.00208      0.06812      0.01240      
38600   0.15503    0.03488    0.04680    0.00186      0.06922      0.01140      0.00212      0.06842      0.01183      
38700   0.15451    0.03479    0.04662    0.00190      0.06891      0.01151      0.00245      0.06807      0.01223      
38800   0.15448    0.03481    0.04663    0.00189      0.06881      0.01164      0.00253      0.06781      0.01172      
38900   0.15416    0.03474    0.04650    0.00163      0.06890      0.01193      0.00206      0.06778      0.01270      
39000   0.15355    0.03454    0.04621    0.00160      0.06893      0.01140      0.00209      0.06774      0.01260      
39100   0.15369    0.03443    0.04620    0.00184      0.06881      0.01201      0.00231      0.06760      0.01258      
39200   0.15363    0.03438    0.04621    0.00170      0.06890      0.01221      0.00209      0.06763      0.01367      
39300   0.15325    0.03419    0.04601    0.00184      0.06891      0.01155      0.00232      0.06759      0.01250      
39400   0.15287    0.03409    0.04589    0.00177      0.06877      0.01172      0.00224      0.06776      0.01271      
39500   0.15323    0.03415    0.04594    0.00183      0.06859      0.01362      0.00215      0.06746      0.01552      
39600   0.15244    0.03395    0.04572    0.00195      0.06857      0.01124      0.00249      0.06746      0.01223      
39700   0.15231    0.03385    0.04560    0.00197      0.06854      0.01175      0.00263      0.06762      0.01272      
39800   0.15186    0.03374    0.04543    0.00171      0.06857      0.01206      0.00222      0.06773      0.01345      
39900   0.15178    0.03366    0.04542    0.00180      0.06864      0.01127      0.00217      0.06781      0.01224      
40000   0.15175    0.03369    0.04534    0.00162      0.06878      0.01159      0.00199      0.06803      0.01289      
40100   0.15121    0.03346    0.04513    0.00173      0.06864      0.01123      0.00226      0.06777      0.01179      
40200   0.15145    0.03346    0.04510    0.00178      0.06856      0.01271      0.00230      0.06767      0.01165      
40300   0.15071    0.03330    0.04498    0.00169      0.06856      0.01090      0.00210      0.06747      0.01154      
40400   0.15030    0.03311    0.04474    0.00177      0.06846      0.01111      0.00230      0.06746      0.01140      
40500   0.15040    0.03304    0.04477    0.00183      0.06857      0.01094      0.00234      0.06748      0.01133      
40600   0.14964    0.03287    0.04450    0.00164      0.06828      0.01176      0.00211      0.06728      0.01279      
40700   0.14952    0.03267    0.04437    0.00183      0.06844      0.01108      0.00242      0.06756      0.01178      
40800   0.14881    0.03249    0.04410    0.00157      0.06840      0.01122      0.00204      0.06730      0.01208      
40900   0.14904    0.03239    0.04403    0.00175      0.06846      0.01204      0.00211      0.06721      0.01278      
41000   0.14857    0.03221    0.04382    0.00165      0.06847      0.01208      0.00211      0.06734      0.01237      
41100   0.14823    0.03220    0.04371    0.00172      0.06825      0.01170      0.00216      0.06711      0.01270      
41200   0.14788    0.03198    0.04356    0.00165      0.06832      0.01187      0.00215      0.06722      0.01176      
41300   0.14779    0.03188    0.04350    0.00170      0.06852      0.01100      0.00221      0.06750      0.01166      
41400   0.14795    0.03192    0.04350    0.00188      0.06840      0.01128      0.00233      0.06715      0.01190      
41500   0.14800    0.03202    0.04353    0.00190      0.06837      0.01089      0.00255      0.06702      0.01111      
41600   0.14763    0.03182    0.04342    0.00173      0.06851      0.01077      0.00226      0.06717      0.01116      
41700   0.14720    0.03154    0.04324    0.00165      0.06857      0.01100      0.00219      0.06742      0.01162      
41800   0.14684    0.03145    0.04308    0.00173      0.06833      0.01121      0.00207      0.06711      0.01216      
41900   0.14661    0.03136    0.04299    0.00162      0.06841      0.01113      0.00205      0.06733      0.01156      
42000   0.14622    0.03114    0.04282    0.00164      0.06839      0.01116      0.00197      0.06720      0.01189      
42100   0.14648    0.03127    0.04288    0.00164      0.06845      0.01117      0.00214      0.06737      0.01159      
42200   0.14632    0.03121    0.04281    0.00174      0.06836      0.01094      0.00222      0.06727      0.01152      
42300   0.14619    0.03119    0.04279    0.00164      0.06834      0.01115      0.00208      0.06715      0.01214      
42400   0.14625    0.03117    0.04277    0.00170      0.06839      0.01110      0.00225      0.06707      0.01203      
42500   0.14625    0.03114    0.04277    0.00157      0.06842      0.01178      0.00189      0.06712      0.01253      
42600   0.14618    0.03122    0.04273    0.00169      0.06829      0.01125      0.00224      0.06709      0.01234      
42700   0.14606    0.03113    0.04268    0.00145      0.06837      0.01215      0.00184      0.06751      0.01359      
42800   0.14609    0.03114    0.04266    0.00154      0.06851      0.01118      0.00195      0.06744      0.01195      
42900   0.14590    0.03108    0.04266    0.00149      0.06830      0.01184      0.00182      0.06725      0.01272      
43000   0.14589    0.03108    0.04264    0.00162      0.06825      0.01151      0.00210      0.06721      0.01196      
43100   0.14571    0.03099    0.04259    0.00169      0.06819      0.01122      0.00228      0.06702      0.01171      
43200   0.14524    0.03087    0.04236    0.00169      0.06802      0.01147      0.00215      0.06713      0.01251      
43300   0.14517    0.03095    0.04234    0.00167      0.06792      0.01146      0.00217      0.06696      0.01207      
43400   0.14532    0.03090    0.04238    0.00164      0.06811      0.01143      0.00214      0.06699      0.01225      
43500   0.14514    0.03085    0.04234    0.00154      0.06823      0.01089      0.00201      0.06752      0.01176      
43600   0.14454    0.03065    0.04209    0.00160      0.06797      0.01116      0.00203      0.06706      0.01183      
43700   0.14468    0.03058    0.04206    0.00160      0.06824      0.01098      0.00203      0.06748      0.01184      
43800   0.14386    0.03034    0.04173    0.00171      0.06786      0.01107      0.00229      0.06717      0.01183      
43900   0.14390    0.03027    0.04167    0.00163      0.06813      0.01098      0.00200      0.06722      0.01187      
44000   0.14359    0.03022    0.04160    0.00162      0.06791      0.01124      0.00200      0.06695      0.01196      
44100   0.14336    0.03016    0.04147    0.00177      0.06767      0.01143      0.00204      0.06667      0.01230      
44200   0.14341    0.03015    0.04146    0.00178      0.06776      0.01129      0.00228      0.06672      0.01139      
44300   0.14342    0.03013    0.04145    0.00159      0.06770      0.01272      0.00197      0.06681      0.01354      
44400   0.14334    0.03019    0.04140    0.00149      0.06800      0.01130      0.00182      0.06727      0.01228      
44500   0.14296    0.03004    0.04122    0.00158      0.06784      0.01140      0.00188      0.06725      0.01251      
44600   0.14318    0.03012    0.04134    0.00160      0.06779      0.01169      0.00192      0.06698      0.01273      
44700   0.14284    0.03003    0.04117    0.00169      0.06765      0.01143      0.00206      0.06703      0.01219      
44800   0.14257    0.02993    0.04100    0.00158      0.06776      0.01154      0.00194      0.06703      0.01153      
44900   0.14307    0.03013    0.04122    0.00148      0.06800      0.01122      0.00186      0.06745      0.01225      
45000   0.14271    0.03011    0.04117    0.00159      0.06766      0.01093      0.00197      0.06678      0.01160      
45100   0.14269    0.03008    0.04110    0.00147      0.06776      0.01146      0.00186      0.06709      0.01229      
45200   0.14218    0.02982    0.04083    0.00156      0.06776      0.01107      0.00194      0.06686      0.01163      
45300   0.14178    0.02972    0.04069    0.00154      0.06762      0.01104      0.00197      0.06678      0.01182      
45400   0.14167    0.02975    0.04061    0.00158      0.06743      0.01153      0.00200      0.06666      0.01199      
45500   0.14196    0.02978    0.04067    0.00149      0.06761      0.01203      0.00193      0.06684      0.01253      
45600   0.14201    0.02980    0.04065    0.00166      0.06749      0.01205      0.00194      0.06681      0.01254      
45700   0.14157    0.02970    0.04052    0.00162      0.06730      0.01216      0.00210      0.06642      0.01365      
45800   0.14170    0.02972    0.04061    0.00158      0.06757      0.01115      0.00195      0.06691      0.01161      
45900   0.14179    0.02978    0.04059    0.00165      0.06758      0.01094      0.00189      0.06681      0.01133      
46000   0.14183    0.02982    0.04057    0.00161      0.06762      0.01106      0.00202      0.06703      0.01132      
46100   0.14118    0.02964    0.04040    0.00157      0.06729      0.01141      0.00208      0.06650      0.01209      
46200   0.14127    0.02967    0.04042    0.00168      0.06722      0.01138      0.00204      0.06623      0.01178      
46300   0.14101    0.02955    0.04028    0.00183      0.06719      0.01079      0.00242      0.06640      0.01095      
46400   0.14074    0.02943    0.04015    0.00176      0.06715      0.01119      0.00214      0.06639      0.01203      
46500   0.14062    0.02939    0.04005    0.00173      0.06723      0.01107      0.00213      0.06653      0.01178      
46600   0.14005    0.02914    0.03983    0.00174      0.06720      0.01074      0.00233      0.06622      0.01111      
46700   0.13994    0.02911    0.03971    0.00165      0.06728      0.01098      0.00195      0.06628      0.01124      
46800   0.13988    0.02916    0.03979    0.00160      0.06712      0.01102      0.00206      0.06627      0.01146      
46900   0.13996    0.02908    0.03975    0.00169      0.06731      0.01067      0.00219      0.06640      0.01071      
47000   0.13965    0.02897    0.03962    0.00165      0.06723      0.01095      0.00216      0.06631      0.01163      
47100   0.13960    0.02894    0.03957    0.00167      0.06717      0.01125      0.00221      0.06613      0.01164      
47200   0.13930    0.02877    0.03934    0.00174      0.06720      0.01125      0.00222      0.06635      0.01200      
47300   0.13875    0.02862    0.03919    0.00169      0.06707      0.01092      0.00217      0.06613      0.01174      
47400   0.13874    0.02854    0.03912    0.00176      0.06712      0.01094      0.00233      0.06626      0.01145      
47500   0.13860    0.02847    0.03906    0.00160      0.06723      0.01120      0.00210      0.06653      0.01185      
47600   0.13779    0.02817    0.03879    0.00155      0.06713      0.01075      0.00200      0.06627      0.01096      
47700   0.13786    0.02821    0.03877    0.00162      0.06718      0.01041      0.00215      0.06637      0.01060      
47800   0.13788    0.02826    0.03882    0.00181      0.06681      0.01094      0.00231      0.06600      0.01056      
47900   0.13770    0.02812    0.03874    0.00155      0.06710      0.01086      0.00204      0.06644      0.01106      
48000   0.13764    0.02811    0.03866    0.00156      0.06718      0.01065      0.00202      0.06650      0.01110      
48100   0.13769    0.02814    0.03866    0.00167      0.06708      0.01069      0.00212      0.06636      0.01093      
48200   0.13711    0.02793    0.03843    0.00160      0.06703      0.01062      0.00205      0.06607      0.01080      
48300   0.13730    0.02793    0.03846    0.00166      0.06707      0.01086      0.00214      0.06617      0.01121      
48400   0.13673    0.02777    0.03827    0.00161      0.06695      0.01065      0.00211      0.06620      0.01082      
48500   0.13657    0.02773    0.03821    0.00165      0.06684      0.01065      0.00223      0.06605      0.01111      
48600   0.13731    0.02791    0.03844    0.00164      0.06682      0.01244      0.00207      0.06607      0.01248      
48700   0.13708    0.02787    0.03835    0.00183      0.06686      0.01084      0.00245      0.06604      0.01139      
48800   0.13700    0.02794    0.03833    0.00162      0.06678      0.01166      0.00207      0.06611      0.01155      
48900   0.13632    0.02761    0.03807    0.00160      0.06687      0.01088      0.00203      0.06618      0.01166      
49000   0.13634    0.02753    0.03799    0.00169      0.06689      0.01116      0.00220      0.06612      0.01180      
49100   0.13621    0.02751    0.03798    0.00172      0.06687      0.01068      0.00224      0.06596      0.01110      
49200   0.13620    0.02739    0.03794    0.00165      0.06709      0.01073      0.00208      0.06634      0.01127      
49300   0.13601    0.02743    0.03786    0.00186      0.06673      0.01069      0.00244      0.06600      0.01113      
49400   0.13619    0.02731    0.03778    0.00185      0.06705      0.01104      0.00246      0.06617      0.01133      
49500   0.13612    0.02737    0.03779    0.00171      0.06709      0.01082      0.00224      0.06645      0.01146      
49600   0.13589    0.02724    0.03772    0.00159      0.06703      0.01161      0.00196      0.06639      0.01230      
49700   0.13567    0.02717    0.03764    0.00160      0.06709      0.01082      0.00211      0.06657      0.01147      
49800   0.13538    0.02713    0.03753    0.00169      0.06679      0.01122      0.00211      0.06594      0.01168      
49900   0.13511    0.02700    0.03744    0.00169      0.06683      0.01076      0.00221      0.06624      0.01134      
50000   0.13501    0.02693    0.03735    0.00152      0.06693      0.01140      0.00196      0.06633      0.01205      
50100   0.13426    0.02664    0.03712    0.00155      0.06678      0.01081      0.00200      0.06611      0.01140      
50200   0.13455    0.02663    0.03709    0.00161      0.06702      0.01102      0.00188      0.06644      0.01172      
50300   0.13421    0.02656    0.03704    0.00162      0.06682      0.01085      0.00201      0.06601      0.01102      
50400   0.13384    0.02647    0.03690    0.00158      0.06665      0.01116      0.00195      0.06579      0.01155      
50500   0.13376    0.02637    0.03680    0.00164      0.06676      0.01105      0.00194      0.06608      0.01183      
50600   0.13380    0.02640    0.03679    0.00155      0.06676      0.01145      0.00198      0.06597      0.01263      
50700   0.13396    0.02655    0.03684    0.00163      0.06681      0.01069      0.00212      0.06611      0.01108      
50800   0.13385    0.02637    0.03672    0.00165      0.06689      0.01104      0.00216      0.06643      0.01151      
50900   0.13324    0.02617    0.03654    0.00161      0.06675      0.01082      0.00197      0.06600      0.01158      
51000   0.13364    0.02621    0.03663    0.00180      0.06685      0.01071      0.00237      0.06607      0.01107      
51100   0.13306    0.02611    0.03646    0.00166      0.06669      0.01068      0.00211      0.06589      0.01122      
51200   0.13284    0.02597    0.03637    0.00160      0.06666      0.01116      0.00203      0.06580      0.01146      
51300   0.13221    0.02575    0.03612    0.00167      0.06656      0.01054      0.00204      0.06573      0.01104      
51400   0.13232    0.02576    0.03612    0.00162      0.06670      0.01067      0.00209      0.06597      0.01093      
51500   0.13231    0.02575    0.03611    0.00157      0.06668      0.01103      0.00200      0.06580      0.01152      
51600   0.13239    0.02581    0.03607    0.00173      0.06654      0.01114      0.00199      0.06573      0.01202      
51700   0.13228    0.02579    0.03605    0.00163      0.06648      0.01168      0.00212      0.06558      0.01268      
51800   0.13219    0.02575    0.03596    0.00177      0.06647      0.01121      0.00220      0.06578      0.01177      
51900   0.13210    0.02568    0.03591    0.00156      0.06672      0.01118      0.00196      0.06599      0.01212      
52000   0.13208    0.02568    0.03598    0.00159      0.06655      0.01135      0.00206      0.06574      0.01053      
52100   0.13220    0.02576    0.03595    0.00155      0.06670      0.01118      0.00198      0.06592      0.01134      
52200   0.13212    0.02576    0.03597    0.00163      0.06667      0.01042      0.00210      0.06596      0.01051      
52300   0.13200    0.02581    0.03597    0.00152      0.06658      0.01059      0.00194      0.06581      0.01071      
52400   0.13191    0.02576    0.03592    0.00157      0.06650      0.01084      0.00193      0.06595      0.01135      
52500   0.13195    0.02569    0.03590    0.00159      0.06652      0.01126      0.00195      0.06589      0.01083      
52600   0.13165    0.02568    0.03583    0.00161      0.06640      0.01063      0.00198      0.06570      0.01092      
52700   0.13153    0.02557    0.03577    0.00158      0.06647      0.01067      0.00206      0.06592      0.01104      
52800   0.13129    0.02542    0.03562    0.00164      0.06651      0.01045      0.00207      0.06576      0.01075      
52900   0.13089    0.02528    0.03545    0.00160      0.06641      0.01074      0.00209      0.06574      0.01120      
53000   0.13105    0.02537    0.03553    0.00150      0.06655      0.01055      0.00191      0.06578      0.01087      
53100   0.13063    0.02522    0.03540    0.00166      0.06623      0.01052      0.00212      0.06563      0.01072      
53200   0.13107    0.02525    0.03549    0.00156      0.06668      0.01044      0.00201      0.06603      0.01056      
53300   0.13072    0.02518    0.03541    0.00166      0.06635      0.01063      0.00213      0.06577      0.01076      
53400   0.13055    0.02512    0.03532    0.00159      0.06647      0.01025      0.00207      0.06588      0.01032      
53500   0.13091    0.02523    0.03545    0.00151      0.06660      0.01064      0.00191      0.06591      0.01094      
53600   0.13083    0.02524    0.03543    0.00161      0.06651      0.01018      0.00211      0.06582      0.01019      
53700   0.13086    0.02515    0.03539    0.00162      0.06664      0.01031      0.00206      0.06594      0.01044      
53800   0.13045    0.02514    0.03532    0.00154      0.06632      0.01067      0.00192      0.06566      0.01094      
53900   0.13063    0.02521    0.03533    0.00155      0.06635      0.01102      0.00196      0.06569      0.01161      
54000   0.13033    0.02507    0.03521    0.00153      0.06635      0.01081      0.00201      0.06569      0.01128      
54100   0.13050    0.02512    0.03523    0.00159      0.06643      0.01065      0.00202      0.06575      0.01056      
54200   0.13021    0.02497    0.03508    0.00159      0.06639      0.01090      0.00210      0.06560      0.01127      
54300   0.13017    0.02496    0.03513    0.00165      0.06628      0.01076      0.00216      0.06567      0.01095      
54400   0.13015    0.02494    0.03509    0.00154      0.06637      0.01108      0.00196      0.06557      0.01186      
54500   0.12993    0.02484    0.03501    0.00153      0.06644      0.01056      0.00199      0.06580      0.01058      
54600   0.12985    0.02489    0.03493    0.00160      0.06629      0.01072      0.00201      0.06556      0.01102      
54700   0.12955    0.02482    0.03482    0.00146      0.06628      0.01081      0.00188      0.06567      0.01126      
54800   0.12929    0.02462    0.03471    0.00160      0.06622      0.01070      0.00199      0.06555      0.01066      
54900   0.12936    0.02470    0.03471    0.00154      0.06621      0.01097      0.00200      0.06539      0.01148      
55000   0.12936    0.02466    0.03469    0.00152      0.06629      0.01098      0.00182      0.06557      0.01120      
55100   0.12913    0.02460    0.03466    0.00158      0.06615      0.01067      0.00199      0.06549      0.01076      
55200   0.12912    0.02454    0.03461    0.00158      0.06621      0.01097      0.00202      0.06556      0.01141      
55300   0.12904    0.02451    0.03457    0.00162      0.06623      0.01054      0.00208      0.06562      0.01049      
55400   0.12920    0.02458    0.03462    0.00156      0.06636      0.01038      0.00204      0.06579      0.01050      
55500   0.12938    0.02462    0.03467    0.00156      0.06643      0.01047      0.00209      0.06582      0.01053      
55600   0.12927    0.02462    0.03458    0.00159      0.06634      0.01072      0.00209      0.06562      0.01080      
55700   0.12916    0.02462    0.03459    0.00155      0.06628      0.01064      0.00196      0.06567      0.01099      
55800   0.12898    0.02453    0.03453    0.00180      0.06599      0.01065      0.00226      0.06528      0.01060      
55900   0.12885    0.02452    0.03451    0.00155      0.06612      0.01079      0.00200      0.06542      0.01118      
56000   0.12901    0.02451    0.03453    0.00163      0.06628      0.01035      0.00214      0.06566      0.01030      
56100   0.12867    0.02445    0.03443    0.00156      0.06616      0.01037      0.00199      0.06549      0.01047      
56200   0.12878    0.02441    0.03444    0.00163      0.06613      0.01089      0.00212      0.06550      0.01124      
56300   0.12880    0.02444    0.03442    0.00163      0.06608      0.01110      0.00211      0.06527      0.01162      
56400   0.12836    0.02421    0.03419    0.00164      0.06618      0.01077      0.00206      0.06563      0.01117      
56500   0.12842    0.02424    0.03426    0.00158      0.06623      0.01063      0.00202      0.06558      0.01102      
56600   0.12820    0.02403    0.03414    0.00171      0.06619      0.01073      0.00231      0.06552      0.01094      
56700   0.12787    0.02409    0.03405    0.00157      0.06609      0.01037      0.00208      0.06533      0.01079      
56800   0.12799    0.02413    0.03408    0.00158      0.06612      0.01043      0.00205      0.06533      0.01079      
56900   0.12779    0.02403    0.03401    0.00151      0.06611      0.01062      0.00195      0.06537      0.01081      
57000   0.12763    0.02391    0.03394    0.00169      0.06597      0.01061      0.00220      0.06521      0.01105      
57100   0.12748    0.02398    0.03393    0.00155      0.06597      0.01026      0.00198      0.06520      0.01055      
57200   0.12700    0.02372    0.03377    0.00153      0.06597      0.01006      0.00194      0.06529      0.01020      
57300   0.12698    0.02375    0.03372    0.00154      0.06588      0.01045      0.00199      0.06522      0.01081      
57400   0.12734    0.02381    0.03376    0.00158      0.06610      0.01049      0.00198      0.06545      0.01092      
57500   0.12728    0.02381    0.03378    0.00154      0.06600      0.01077      0.00188      0.06533      0.01153      
57600   0.12714    0.02380    0.03374    0.00157      0.06597      0.01024      0.00209      0.06531      0.01046      
57700   0.12712    0.02375    0.03369    0.00155      0.06602      0.01050      0.00192      0.06541      0.01090      
57800   0.12704    0.02373    0.03369    0.00159      0.06583      0.01102      0.00202      0.06503      0.01145      
57900   0.12691    0.02361    0.03366    0.00163      0.06586      0.01067      0.00216      0.06514      0.01120      
58000   0.12689    0.02369    0.03367    0.00150      0.06591      0.01059      0.00196      0.06522      0.01102      
58100   0.12691    0.02363    0.03365    0.00170      0.06582      0.01056      0.00220      0.06512      0.01105      
58200   0.12678    0.02362    0.03355    0.00159      0.06592      0.01049      0.00202      0.06520      0.01060      
58300   0.12649    0.02343    0.03343    0.00145      0.06603      0.01071      0.00182      0.06527      0.01103      
58400   0.12649    0.02350    0.03340    0.00152      0.06597      0.01045      0.00197      0.06518      0.01078      
58500   0.12614    0.02332    0.03328    0.00159      0.06584      0.01057      0.00204      0.06509      0.01080      
58600   0.12597    0.02325    0.03323    0.00161      0.06583      0.01023      0.00202      0.06506      0.01027      
58700   0.12575    0.02325    0.03318    0.00155      0.06571      0.01029      0.00206      0.06496      0.01049      
58800   0.12590    0.02327    0.03320    0.00152      0.06582      0.01045      0.00197      0.06495      0.01073      
58900   0.12591    0.02333    0.03320    0.00159      0.06570      0.01042      0.00196      0.06495      0.01041      
59000   0.12566    0.02319    0.03309    0.00157      0.06569      0.01054      0.00196      0.06496      0.01100      
59100   0.12538    0.02309    0.03297    0.00145      0.06578      0.01042      0.00191      0.06517      0.01090      
59200   0.12558    0.02313    0.03304    0.00147      0.06576      0.01086      0.00188      0.06518      0.01108      
59300   0.12556    0.02318    0.03302    0.00151      0.06580      0.01024      0.00187      0.06514      0.01064      
59400   0.12561    0.02319    0.03302    0.00159      0.06576      0.01021      0.00199      0.06511      0.01058      
59500   0.12561    0.02313    0.03301    0.00161      0.06572      0.01068      0.00209      0.06506      0.01110      
59600   0.12536    0.02303    0.03293    0.00143      0.06590      0.01031      0.00186      0.06531      0.01071      
59700   0.12566    0.02310    0.03300    0.00143      0.06592      0.01110      0.00185      0.06543      0.01090      
59800   0.12521    0.02301    0.03291    0.00168      0.06552      0.01047      0.00208      0.06490      0.01099      
59900   0.12503    0.02293    0.03283    0.00159      0.06561      0.01035      0.00211      0.06503      0.01061      
60000   0.12545    0.02315    0.03297    0.00144      0.06571      0.01088      0.00187      0.06507      0.01178      
60100   0.12553    0.02320    0.03300    0.00158      0.06568      0.01037      0.00200      0.06494      0.01074      
60200   0.12549    0.02315    0.03296    0.00156      0.06571      0.01052      0.00197      0.06509      0.01088      
60300   0.12523    0.02309    0.03287    0.00152      0.06558      0.01079      0.00199      0.06492      0.01121      
60400   0.12513    0.02303    0.03284    0.00150      0.06567      0.01053      0.00196      0.06512      0.01101      
60500   0.12506    0.02299    0.03279    0.00158      0.06563      0.01031      0.00204      0.06495      0.01074      
60600   0.12476    0.02288    0.03264    0.00147      0.06565      0.01064      0.00188      0.06499      0.01117      
60700   0.12461    0.02281    0.03258    0.00159      0.06553      0.01048      0.00205      0.06494      0.01076      
60800   0.12445    0.02272    0.03250    0.00150      0.06557      0.01075      0.00186      0.06505      0.01112      
60900   0.12447    0.02264    0.03251    0.00150      0.06568      0.01074      0.00187      0.06500      0.01125      
61000   0.12446    0.02271    0.03246    0.00150      0.06560      0.01092      0.00196      0.06492      0.01115      
61100   0.12432    0.02265    0.03243    0.00149      0.06560      0.01074      0.00187      0.06506      0.01115      
61200   0.12451    0.02273    0.03249    0.00148      0.06567      0.01065      0.00185      0.06505      0.01095      
61300   0.12447    0.02268    0.03244    0.00148      0.06568      0.01091      0.00188      0.06502      0.01091      
61400   0.12417    0.02255    0.03235    0.00151      0.06560      0.01081      0.00193      0.06494      0.01095      
61500   0.12427    0.02259    0.03238    0.00146      0.06573      0.01055      0.00188      0.06503      0.01092      
61600   0.12412    0.02253    0.03232    0.00144      0.06579      0.01023      0.00181      0.06504      0.01036      
61700   0.12404    0.02243    0.03225    0.00155      0.06572      0.01041      0.00192      0.06499      0.01066      
61800   0.12410    0.02254    0.03231    0.00149      0.06566      0.01051      0.00191      0.06493      0.01092      
61900   0.12361    0.02234    0.03213    0.00151      0.06554      0.01042      0.00195      0.06483      0.01041      
62000   0.12338    0.02223    0.03203    0.00142      0.06557      0.01066      0.00183      0.06497      0.01085      
62100   0.12307    0.02203    0.03187    0.00147      0.06549      0.01103      0.00183      0.06496      0.01166      
62200   0.12302    0.02207    0.03188    0.00147      0.06546      0.01071      0.00189      0.06484      0.01076      
62300   0.12307    0.02207    0.03189    0.00153      0.06549      0.01041      0.00204      0.06485      0.01077      
62400   0.12287    0.02200    0.03179    0.00147      0.06545      0.01076      0.00192      0.06482      0.01120      
62500   0.12295    0.02198    0.03182    0.00154      0.06539      0.01111      0.00198      0.06478      0.01143      
62600   0.12253    0.02185    0.03166    0.00153      0.06539      0.01049      0.00200      0.06483      0.01083      
62700   0.12249    0.02183    0.03165    0.00158      0.06535      0.01045      0.00202      0.06467      0.01102      
[...]
20800   0.09293    0.00908    0.01915    0.00129      0.06147      0.00974      0.00168      0.06090      0.00985      
20900   0.09293    0.00908    0.01915    0.00130      0.06145      0.00975      0.00170      0.06088      0.00987      
21000   0.09293    0.00908    0.01915    0.00129      0.06146      0.00976      0.00169      0.06089      0.00988      
21100   0.09292    0.00908    0.01915    0.00129      0.06146      0.00976      0.00168      0.06089      0.00986      
21200   0.09292    0.00908    0.01914    0.00129      0.06145      0.00976      0.00169      0.06089      0.00989      
21300   0.09291    0.00907    0.01914    0.00129      0.06146      0.00977      0.00169      0.06089      0.00989      
21400   0.09291    0.00907    0.01914    0.00130      0.06145      0.00976      0.00170      0.06088      0.00987      
21500   0.09291    0.00907    0.01914    0.00129      0.06146      0.00977      0.00168      0.06090      0.00992      
21600   0.09290    0.00907    0.01913    0.00129      0.06145      0.00977      0.00168      0.06089      0.00990      
21700   0.09289    0.00907    0.01913    0.00129      0.06144      0.00977      0.00169      0.06089      0.00989      
21800   0.09288    0.00906    0.01913    0.00129      0.06145      0.00975      0.00169      0.06088      0.00986      
21900   0.09288    0.00906    0.01913    0.00128      0.06146      0.00977      0.00167      0.06090      0.00990      
22000   0.09288    0.00906    0.01913    0.00129      0.06145      0.00976      0.00169      0.06088      0.00988      
22100   0.09287    0.00905    0.01912    0.00129      0.06145      0.00977      0.00168      0.06089      0.00991      
22200   0.09287    0.00905    0.01912    0.00128      0.06146      0.00977      0.00166      0.06090      0.00990      
22300   0.09287    0.00905    0.01912    0.00129      0.06145      0.00977      0.00168      0.06089      0.00991      
22400   0.09286    0.00905    0.01912    0.00129      0.06145      0.00975      0.00168      0.06089      0.00987      
22500   0.09286    0.00905    0.01912    0.00129      0.06145      0.00974      0.00170      0.06088      0.00984      
22600   0.09285    0.00905    0.01911    0.00130      0.06144      0.00974      0.00169      0.06088      0.00986      
22700   0.09285    0.00905    0.01911    0.00128      0.06145      0.00976      0.00167      0.06090      0.00989      
22800   0.09284    0.00905    0.01911    0.00129      0.06144      0.00977      0.00168      0.06088      0.00991      
22900   0.09284    0.00904    0.01911    0.00129      0.06144      0.00976      0.00169      0.06088      0.00988      
23000   0.09283    0.00904    0.01910    0.00129      0.06144      0.00975      0.00169      0.06088      0.00986      
23100   0.09282    0.00904    0.01910    0.00129      0.06144      0.00976      0.00168      0.06087      0.00989      
23200   0.09282    0.00903    0.01910    0.00129      0.06144      0.00975      0.00169      0.06087      0.00987      
23300   0.09281    0.00903    0.01910    0.00129      0.06144      0.00974      0.00169      0.06088      0.00985      
23400   0.09281    0.00903    0.01910    0.00130      0.06144      0.00974      0.00169      0.06087      0.00986      
23500   0.09281    0.00903    0.01910    0.00130      0.06144      0.00974      0.00170      0.06087      0.00985      
23600   0.09280    0.00903    0.01909    0.00129      0.06144      0.00976      0.00168      0.06087      0.00988      
23700   0.09280    0.00902    0.01909    0.00129      0.06144      0.00977      0.00169      0.06087      0.00990      
23800   0.09279    0.00902    0.01909    0.00129      0.06144      0.00974      0.00169      0.06088      0.00985      
23900   0.09278    0.00901    0.01909    0.00129      0.06144      0.00973      0.00169      0.06089      0.00984      
24000   0.09278    0.00901    0.01908    0.00129      0.06144      0.00978      0.00168      0.06088      0.00991      
24100   0.09278    0.00901    0.01908    0.00129      0.06143      0.00977      0.00169      0.06088      0.00991      
24200   0.09277    0.00901    0.01908    0.00129      0.06144      0.00975      0.00169      0.06089      0.00986      
24300   0.09277    0.00901    0.01908    0.00130      0.06143      0.00974      0.00170      0.06087      0.00983      
24400   0.09276    0.00901    0.01908    0.00129      0.06143      0.00976      0.00169      0.06088      0.00989      
24500   0.09276    0.00901    0.01908    0.00129      0.06144      0.00975      0.00169      0.06088      0.00987      
24600   0.09275    0.00901    0.01907    0.00129      0.06144      0.00974      0.00168      0.06089      0.00983      
24700   0.09275    0.00900    0.01907    0.00129      0.06144      0.00976      0.00169      0.06088      0.00988      
24800   0.09275    0.00900    0.01907    0.00129      0.06144      0.00973      0.00168      0.06088      0.00983      
24900   0.09275    0.00900    0.01907    0.00129      0.06143      0.00977      0.00170      0.06088      0.00990      
25000   0.09274    0.00900    0.01907    0.00130      0.06142      0.00977      0.00170      0.06087      0.00989      
25100   0.09273    0.00900    0.01906    0.00131      0.06142      0.00975      0.00171      0.06085      0.00987      
25200   0.09273    0.00900    0.01906    0.00129      0.06143      0.00974      0.00168      0.06088      0.00985      
25300   0.09273    0.00899    0.01906    0.00130      0.06143      0.00973      0.00171      0.06086      0.00983      
25400   0.09272    0.00899    0.01905    0.00129      0.06143      0.00974      0.00169      0.06087      0.00985      
25500   0.09271    0.00899    0.01905    0.00129      0.06143      0.00974      0.00169      0.06085      0.00985      
25600   0.09271    0.00899    0.01905    0.00128      0.06143      0.00976      0.00167      0.06088      0.00988      
25700   0.09271    0.00899    0.01905    0.00129      0.06143      0.00973      0.00169      0.06086      0.00984      
25800   0.09270    0.00899    0.01905    0.00128      0.06143      0.00976      0.00167      0.06087      0.00990      
25900   0.09269    0.00899    0.01905    0.00129      0.06142      0.00974      0.00168      0.06087      0.00986      
26000   0.09269    0.00898    0.01905    0.00129      0.06142      0.00977      0.00168      0.06086      0.00991      
26100   0.09268    0.00898    0.01904    0.00130      0.06142      0.00974      0.00169      0.06085      0.00984      
26200   0.09268    0.00898    0.01904    0.00129      0.06142      0.00974      0.00169      0.06085      0.00986      
26300   0.09267    0.00898    0.01904    0.00130      0.06142      0.00974      0.00169      0.06085      0.00985      
26400   0.09267    0.00897    0.01904    0.00129      0.06142      0.00976      0.00169      0.06085      0.00988      
26500   0.09267    0.00897    0.01904    0.00129      0.06141      0.00977      0.00169      0.06085      0.00990      
26600   0.09266    0.00897    0.01903    0.00130      0.06141      0.00975      0.00170      0.06084      0.00987      
26700   0.09266    0.00897    0.01903    0.00128      0.06142      0.00976      0.00167      0.06087      0.00988      
26800   0.09265    0.00897    0.01903    0.00128      0.06142      0.00974      0.00168      0.06086      0.00986      
26900   0.09265    0.00897    0.01903    0.00129      0.06141      0.00975      0.00168      0.06086      0.00988      
27000   0.09264    0.00896    0.01903    0.00129      0.06141      0.00975      0.00169      0.06085      0.00988      
27100   0.09264    0.00896    0.01903    0.00129      0.06141      0.00973      0.00169      0.06085      0.00984      
27200   0.09264    0.00896    0.01902    0.00129      0.06142      0.00974      0.00168      0.06085      0.00985      
27300   0.09264    0.00896    0.01902    0.00129      0.06141      0.00975      0.00169      0.06085      0.00986      
27400   0.09263    0.00896    0.01902    0.00128      0.06142      0.00975      0.00167      0.06086      0.00987      
27500   0.09262    0.00896    0.01902    0.00129      0.06141      0.00974      0.00169      0.06085      0.00984      
27600   0.09262    0.00895    0.01902    0.00129      0.06141      0.00974      0.00168      0.06085      0.00984      
27700   0.09262    0.00895    0.01902    0.00129      0.06141      0.00975      0.00168      0.06085      0.00987      
27800   0.09261    0.00895    0.01901    0.00129      0.06141      0.00974      0.00169      0.06085      0.00985      
27900   0.09260    0.00895    0.01901    0.00129      0.06140      0.00975      0.00169      0.06083      0.00986      
28000   0.09261    0.00895    0.01901    0.00130      0.06140      0.00972      0.00170      0.06085      0.00981      
28100   0.09260    0.00895    0.01901    0.00129      0.06141      0.00970      0.00169      0.06084      0.00977      
28200   0.09260    0.00895    0.01901    0.00130      0.06140      0.00972      0.00170      0.06084      0.00982      
28300   0.09259    0.00895    0.01901    0.00129      0.06141      0.00973      0.00168      0.06085      0.00985      
28400   0.09259    0.00895    0.01900    0.00129      0.06140      0.00973      0.00168      0.06084      0.00983      
28500   0.09258    0.00894    0.01900    0.00129      0.06141      0.00974      0.00167      0.06085      0.00985      
28600   0.09258    0.00894    0.01900    0.00130      0.06140      0.00973      0.00170      0.06084      0.00984      
28700   0.09258    0.00894    0.01900    0.00130      0.06140      0.00972      0.00169      0.06084      0.00983      
28800   0.09258    0.00894    0.01900    0.00130      0.06140      0.00972      0.00170      0.06084      0.00984      
28900   0.09257    0.00894    0.01899    0.00130      0.06139      0.00974      0.00170      0.06083      0.00987      
29000   0.09256    0.00893    0.01899    0.00130      0.06139      0.00973      0.00170      0.06084      0.00984      
29100   0.09256    0.00893    0.01899    0.00129      0.06140      0.00974      0.00169      0.06084      0.00987      
29200   0.09255    0.00893    0.01899    0.00129      0.06140      0.00972      0.00169      0.06084      0.00982      
29300   0.09255    0.00892    0.01899    0.00130      0.06139      0.00973      0.00170      0.06083      0.00984      
29400   0.09255    0.00892    0.01899    0.00130      0.06139      0.00974      0.00169      0.06083      0.00986      
29500   0.09254    0.00892    0.01898    0.00130      0.06139      0.00975      0.00170      0.06082      0.00987      
29600   0.09253    0.00892    0.01898    0.00129      0.06140      0.00972      0.00169      0.06083      0.00983      
29700   0.09253    0.00892    0.01898    0.00129      0.06140      0.00973      0.00168      0.06083      0.00985      
29800   0.09253    0.00892    0.01898    0.00130      0.06138      0.00974      0.00170      0.06081      0.00987      
29900   0.09252    0.00892    0.01898    0.00130      0.06138      0.00974      0.00170      0.06081      0.00987      
30000   0.09251    0.00891    0.01897    0.00129      0.06138      0.00974      0.00169      0.06082      0.00987      
30100   0.09251    0.00891    0.01897    0.00130      0.06138      0.00973      0.00170      0.06081      0.00986      
30200   0.09250    0.00891    0.01897    0.00130      0.06138      0.00972      0.00170      0.06082      0.00983      
30300   0.09250    0.00891    0.01897    0.00130      0.06138      0.00973      0.00170      0.06082      0.00986      
30400   0.09250    0.00891    0.01897    0.00130      0.06138      0.00973      0.00171      0.06082      0.00985      
30500   0.09249    0.00891    0.01896    0.00130      0.06138      0.00973      0.00169      0.06083      0.00984      
30600   0.09249    0.00890    0.01896    0.00129      0.06138      0.00973      0.00169      0.06083      0.00984      
30700   0.09248    0.00890    0.01896    0.00129      0.06138      0.00974      0.00169      0.06081      0.00986      
30800   0.09248    0.00890    0.01896    0.00129      0.06138      0.00974      0.00169      0.06083      0.00987      
30900   0.09248    0.00890    0.01896    0.00130      0.06137      0.00974      0.00170      0.06081      0.00986      
31000   0.09247    0.00890    0.01896    0.00129      0.06137      0.00975      0.00169      0.06082      0.00988      
31100   0.09247    0.00890    0.01896    0.00130      0.06137      0.00974      0.00170      0.06080      0.00988      
31200   0.09247    0.00890    0.01896    0.00130      0.06137      0.00973      0.00169      0.06081      0.00984      
31300   0.09246    0.00890    0.01895    0.00130      0.06136      0.00974      0.00171      0.06080      0.00986      
31400   0.09246    0.00889    0.01895    0.00130      0.06137      0.00972      0.00170      0.06081      0.00983      
31500   0.09246    0.00889    0.01895    0.00129      0.06138      0.00974      0.00168      0.06082      0.00987      
31600   0.09245    0.00889    0.01895    0.00129      0.06137      0.00974      0.00169      0.06081      0.00986      
31700   0.09245    0.00889    0.01895    0.00129      0.06136      0.00976      0.00169      0.06080      0.00991      
31800   0.09244    0.00889    0.01895    0.00129      0.06137      0.00976      0.00168      0.06080      0.00990      
31900   0.09244    0.00889    0.01894    0.00129      0.06137      0.00974      0.00168      0.06081      0.00987      
32000   0.09243    0.00888    0.01894    0.00129      0.06136      0.00975      0.00169      0.06080      0.00988      
32100   0.09243    0.00888    0.01894    0.00130      0.06136      0.00973      0.00169      0.06080      0.00985      
32200   0.09242    0.00888    0.01894    0.00129      0.06137      0.00975      0.00168      0.06081      0.00988      
32300   0.09242    0.00888    0.01894    0.00130      0.06136      0.00974      0.00170      0.06080      0.00987      
32400   0.09242    0.00888    0.01893    0.00129      0.06137      0.00974      0.00168      0.06082      0.00987      
32500   0.09241    0.00887    0.01893    0.00129      0.06136      0.00974      0.00170      0.06080      0.00986      
32600   0.09241    0.00888    0.01893    0.00129      0.06136      0.00974      0.00168      0.06080      0.00986      
32700   0.09240    0.00887    0.01893    0.00129      0.06137      0.00972      0.00168      0.06080      0.00982      
32800   0.09239    0.00887    0.01893    0.00129      0.06137      0.00973      0.00168      0.06080      0.00985      
32900   0.09239    0.00887    0.01892    0.00130      0.06135      0.00974      0.00170      0.06079      0.00987      
33000   0.09239    0.00887    0.01892    0.00129      0.06136      0.00975      0.00169      0.06080      0.00987      
33100   0.09238    0.00886    0.01892    0.00129      0.06136      0.00975      0.00168      0.06080      0.00988      
33200   0.09238    0.00886    0.01892    0.00130      0.06135      0.00974      0.00170      0.06079      0.00986      
33300   0.09237    0.00886    0.01892    0.00129      0.06136      0.00972      0.00169      0.06080      0.00984      
33400   0.09237    0.00886    0.01892    0.00130      0.06135      0.00973      0.00170      0.06081      0.00985      
33500   0.09237    0.00886    0.01892    0.00129      0.06136      0.00973      0.00169      0.06081      0.00986      
33600   0.09236    0.00886    0.01891    0.00129      0.06136      0.00973      0.00169      0.06080      0.00984      
33700   0.09236    0.00886    0.01891    0.00129      0.06135      0.00974      0.00169      0.06081      0.00987      
33800   0.09235    0.00885    0.01891    0.00129      0.06135      0.00973      0.00169      0.06080      0.00984      
33900   0.09235    0.00885    0.01891    0.00130      0.06135      0.00973      0.00169      0.06079      0.00985      
34000   0.09234    0.00885    0.01891    0.00128      0.06135      0.00975      0.00167      0.06080      0.00988      
34100   0.09234    0.00885    0.01891    0.00129      0.06135      0.00974      0.00169      0.06079      0.00987      
34200   0.09234    0.00885    0.01890    0.00129      0.06135      0.00972      0.00169      0.06079      0.00984      
34300   0.09233    0.00884    0.01890    0.00129      0.06135      0.00972      0.00168      0.06080      0.00982      
34400   0.09232    0.00884    0.01890    0.00129      0.06135      0.00972      0.00169      0.06079      0.00983      
34500   0.09232    0.00884    0.01890    0.00129      0.06135      0.00973      0.00169      0.06079      0.00984      
34600   0.09232    0.00884    0.01890    0.00130      0.06134      0.00971      0.00170      0.06078      0.00981      
34700   0.09231    0.00883    0.01889    0.00129      0.06135      0.00971      0.00169      0.06080      0.00980      
34800   0.09230    0.00883    0.01889    0.00129      0.06134      0.00972      0.00169      0.06079      0.00982      
34900   0.09230    0.00883    0.01889    0.00129      0.06134      0.00974      0.00169      0.06078      0.00985      
35000   0.09230    0.00883    0.01889    0.00129      0.06134      0.00975      0.00168      0.06078      0.00989      
35100   0.09229    0.00883    0.01889    0.00129      0.06134      0.00974      0.00169      0.06078      0.00985      
35200   0.09229    0.00883    0.01889    0.00129      0.06134      0.00973      0.00168      0.06079      0.00984      
35300   0.09229    0.00882    0.01888    0.00129      0.06135      0.00971      0.00169      0.06079      0.00981      
35400   0.09228    0.00882    0.01888    0.00129      0.06135      0.00971      0.00169      0.06079      0.00981      
35500   0.09228    0.00882    0.01888    0.00130      0.06133      0.00973      0.00170      0.06078      0.00985      
35600   0.09227    0.00882    0.01888    0.00129      0.06134      0.00973      0.00169      0.06079      0.00985      
35700   0.09227    0.00882    0.01888    0.00129      0.06134      0.00972      0.00169      0.06078      0.00983      
35800   0.09226    0.00881    0.01888    0.00129      0.06134      0.00972      0.00169      0.06078      0.00982      
35900   0.09226    0.00881    0.01887    0.00130      0.06133      0.00972      0.00170      0.06077      0.00982      
36000   0.09226    0.00881    0.01887    0.00129      0.06134      0.00972      0.00168      0.06079      0.00983      
36100   0.09225    0.00881    0.01887    0.00129      0.06134      0.00971      0.00169      0.06078      0.00982      
36200   0.09225    0.00881    0.01887    0.00129      0.06133      0.00971      0.00169      0.06078      0.00982      
36300   0.09224    0.00881    0.01887    0.00129      0.06133      0.00972      0.00169      0.06078      0.00983      
36400   0.09224    0.00881    0.01887    0.00129      0.06133      0.00972      0.00169      0.06078      0.00982      
36500   0.09224    0.00880    0.01886    0.00129      0.06134      0.00972      0.00168      0.06078      0.00983      
36600   0.09223    0.00880    0.01886    0.00130      0.06132      0.00973      0.00170      0.06076      0.00985      
36700   0.09223    0.00880    0.01886    0.00129      0.06133      0.00972      0.00169      0.06077      0.00983      
36800   0.09222    0.00880    0.01886    0.00128      0.06133      0.00973      0.00168      0.06079      0.00985      
36900   0.09222    0.00880    0.01886    0.00129      0.06133      0.00972      0.00169      0.06079      0.00983      
37000   0.09222    0.00880    0.01886    0.00129      0.06133      0.00973      0.00169      0.06078      0.00985      

---------------------------------------------------------------
Time used for training = 40155.093750 s.
---------------------------------------------------------------


---------------------------------------------------------------
Finished running nep.
---------------------------------------------------------------

