  1.9025801e-01   1.1229153e-04
  4.6883699e-02   6.3624460e-04
  1.7480522e-01   1.0314659e-04
 -1.7995214e-01   2.9085812e-05
 -1.8174721e-01   5.4890389e-04
 -1.7423490e-03   2.4960062e-04
 -2.8811807e-03   1.0489800e-03
  2.5262358e-03   8.2293403e-04
  2.4859456e-03   8.2497613e-04
 -1.5755704e-03   3.9910735e-04
 -1.2110442e-01   2.1595776e-03
  1.0020951e-01   7.3645054e-04
  2.0672907e-01   1.2029598e-04
  8.6680114e-01   4.7071045e-04
  1.2195458e-02   5.7140848e-04
  9.3848854e-03   5.9479859e-04
 -1.2809027e-03   1.8087040e-04
  5.3705640e-02   9.5857540e-05
  3.9526791e-04   5.2580680e-04
 -8.1124976e-02   2.9755096e-04
  1.9250925e-03   1.1111802e-03
 -3.1040261e-02   1.2219119e-03
  2.0534247e-02   2.3272434e-04
  1.7285888e-03   7.7778939e-04
 -1.8109059e-03   6.7019416e-04
  4.5744018e-03   6.3872349e-04
 -3.5037175e-03   1.0849172e-03
  4.2707250e-03   7.8909408e-04
  1.2030123e-03   5.4342928e-04
  9.4283698e-03   8.5260655e-04
 -5.3369408e-03   3.3593216e-04
 -1.9292474e-03   3.9899023e-04
 -1.1248245e-03   1.2028425e-03
  1.9911481e-03   4.3258275e-04
  1.2191065e-04   1.2054575e-03
  4.0582642e-03   4.3267253e-04
 -2.0930169e-03   9.5575518e-04
 -1.3791774e-05   8.6455961e-04
 -2.1225477e-03   7.3966035e-04
  2.6031036e-03   1.2871047e-03
 -1.0814969e-03   5.1303121e-04
 -4.0763821e-03   3.7408978e-04
  5.2010489e-04   4.1311610e-04
  2.7696131e-04   4.2793521e-04
 -3.5412185e-04   1.5338003e-03
 -2.5476287e-03   1.1018505e-03
  2.2969816e-03   7.2849100e-04
  1.3913526e-03   6.3169311e-04
  2.5707837e-03   7.4617530e-04
 -2.6715025e-03   1.4014617e-03
 -1.8828636e-04   9.9779549e-04
  1.0281329e-03   4.1914079e-04
  4.2614196e-03   8.7709958e-04
  2.2171262e-04   5.8004993e-04
  1.7415208e-03   8.3960022e-04
  2.4505751e-03   9.3041052e-04
  5.1215786e-04   7.8704359e-04
 -1.0462118e-04   5.9165241e-04
 -2.2735018e-03   5.8090693e-04
 -1.2511351e-03   7.7799807e-04
 -3.3066779e-02   8.8589804e-05
  1.3186221e-03   3.5676072e-04
  2.6226154e-01   5.2833924e-04
 -6.4431362e-02   1.0292483e-04
 -1.2867892e-01   3.7519957e-04
 -2.6172798e-03   4.2310980e-04
 -2.9973774e-03   6.7578844e-04
 -1.9177444e-02   6.7470007e-04
 -1.2371527e-02   5.1937735e-04
 -2.1624197e-03   5.8588153e-04
 -5.3670158e-04   4.0992993e-04
 -3.6489677e-02   5.7798211e-04
  1.7532652e-02   2.9765291e-04
 -1.6311283e-01   6.6069933e-04
 -3.1901977e-03   2.7665263e-04
 -9.5055634e-03   1.0830321e-03
  1.2971569e-04   2.9911520e-04
  2.1870372e-01   1.4636843e-04
 -1.6958131e-01   1.2480539e-03
  1.4054907e-03   1.2857739e-04
 -1.5664218e-03   1.4639440e-03
  1.6640711e-03   7.6186773e-04
  3.4443296e-03   7.8914716e-04
 -1.5373318e-03   8.1524887e-04
  3.2251654e-03   5.2150263e-04
 -6.8114186e-06   3.7257493e-04
 -7.5714150e-04   8.7707274e-04
 -3.3196760e-05   1.0392289e-03
 -1.1036878e-03   1.4920506e-03
  3.4992781e-03   1.1982495e-03
  6.1413593e-06   7.3820661e-04
 -4.1631301e-04   1.4432104e-03
 -4.9376423e-03   7.3377742e-04
  3.0867551e-03   1.6204534e-03
 -7.5637060e-04   5.6580582e-04
  2.6171765e-04   6.0844660e-04
  8.4615994e-04   5.9983425e-04
 -1.2526471e-03   7.5123989e-04
  4.6444978e-04   5.5112207e-04
  2.1461009e-03   4.8533818e-04
 -2.8830965e-03   8.0555258e-04
  3.6077430e-03   7.6649705e-04
  3.1067571e-03   5.9274456e-04
  1.0877892e-03   6.4707844e-04
  1.9438523e-03   7.4098026e-04
  1.8099973e-03   9.6020522e-04
  4.6340539e-03   5.6349504e-04
 -2.4230324e-03   8.5975393e-04
 -1.6589542e-03   3.7196037e-04
 -6.2246615e-04   7.8369852e-04
 -1.8507271e-06   1.3383075e-03
 -6.3615292e-04   7.1356306e-04
 -1.4807527e-03   3.1956006e-04
  4.7055162e-03   4.7151392e-04
  2.5531943e-03   8.8515290e-04
  1.3760279e-03   6.8272196e-04
 -1.4536837e-03   4.0663581e-04
 -5.4433238e-04   3.4435545e-04
 -6.4026628e-04   8.9859590e-04
  2.8380880e-03   8.1172708e-04
  1.8474966e-01   4.4103770e-05
  2.7808885e-03   7.1459508e-04
 -4.4820681e-03   3.7619367e-04
 -1.2376667e-03   1.6147198e-04
  3.2138902e-01   2.9944669e-04
  4.4849934e-04   6.0309056e-04
 -1.4593583e-04   7.5090118e-04
  4.5673922e-04   1.0461545e-03
  1.7592308e-04   1.0161644e-03
 -2.4636037e-04   1.1442202e-03
 -3.8020408e-03   8.9170138e-04
  1.1361041e-03   5.0615286e-04
  4.8317354e-02   6.7968969e-04
  2.2594698e-03   3.0241156e-04
 -1.0973321e-04   4.3735013e-04
  5.8661157e-04   9.6673681e-04
  1.8505933e+00   1.4182243e-04
 -1.1269613e-03   2.9451618e-04
  3.0621064e-03   5.5283320e-04
 -1.6085164e-03   1.0104729e-03
 -1.1096431e-03   9.2927623e-04
  4.8150663e-04   1.1220272e-03
 -8.2541620e-03   2.5241735e-04
 -3.6557700e-04   6.3844200e-04
 -4.5910161e-03   8.7795127e-04
 -3.6033224e-03   1.6191285e-03
  6.3350797e-04   8.2843628e-04
  1.6698803e-04   1.0242966e-03
 -4.0661907e-05   6.0986704e-04
  5.1715114e-04   6.9803407e-04
 -5.7830119e-01   1.4212525e-05
 -5.1331294e-01   7.9817924e-05
  4.2677262e-01   1.6904480e-05
 -1.0287281e+00   2.8576802e-05
  5.6091887e-01   6.2398880e-04
 -1.2487360e+00   2.5719873e-04
  8.7063569e-01   1.7482099e-03
  2.4185970e-02   5.5026199e-04
 -1.9871341e-01   9.7838615e-04
  4.6929440e-01   8.2971371e-04
 -5.9923702e-01   5.6385115e-04
 -5.2194472e-02   4.1756523e-04
 -6.9577038e-01   8.0956066e-05
 -4.0516791e-01   4.4990671e-04
 -8.1095362e-01   8.9415560e-05
 -1.6486392e+00   8.5563057e-05
  2.0588325e-01   1.4780225e-04
  6.7872018e-01   9.5235118e-05
 -1.1956502e+00   2.0851134e-04
 -2.8048513e+00   9.4122421e-05
 -8.6281097e-01   1.3643996e-03
 -1.4217941e-01   2.5351724e-04
  3.1555447e-01   2.2606946e-04
 -1.7488220e-01   5.6129036e-04
 -8.8345593e-01   3.6896532e-04
  6.3940650e-03   7.7975763e-04
 -2.1769223e-03   9.9395507e-04
  3.7641492e-01   3.5025986e-04
  3.3000401e-01   8.9081126e-04
  1.0715388e+00   1.0848239e-03
 -2.5549316e-01   2.6778762e-05
 -1.4984610e-03   1.4122552e-04
  1.6507657e-01   2.2294122e-04
  3.4841171e-01   4.9404141e-05
 -8.4152871e-01   4.1077030e-04
 -2.6020117e-03   4.0352839e-04
  2.1829968e-03   1.0774290e-03
 -2.2098300e-01   3.0879173e-04
 -8.6954914e-02   7.3024287e-04
  2.3884138e-03   7.7840517e-04
 -2.6643088e-01   9.5570656e-05
 -1.6799346e-02   3.4578727e-04
 -4.3458945e-01   7.5260497e-05
 -5.9421800e-02   1.6536629e-04
 -1.3696834e-03   2.7019708e-04
 -4.2214625e-02   3.1069649e-04
 -3.8924251e-02   1.6637017e-04
 -1.9411243e-01   3.7383415e-05
 -9.0460256e-03   2.7662542e-04
  7.2868336e-03   4.4009892e-05
 -1.1551946e-01   1.4639905e-03
  7.9745771e-03   7.7115418e-04
 -1.0829661e-01   3.4520758e-04
 -5.4117221e-01   1.2453871e-03
 -2.5372729e-02   1.4173650e-04
  2.2624454e-01   2.6925439e-03
  1.0600706e-03   4.3154345e-04
 -2.8368954e-02   2.5341907e-04
 -3.6404916e-04   3.9432896e-04
  1.0450946e-01   8.6429348e-04
  7.5052041e-01   3.1622246e-04
  9.1966277e-04   2.8348365e-04
 -2.3816176e-01   3.3579385e-04
  1.0120719e-02   3.4527166e-04
  1.9036090e-01   7.7744428e-04
  3.5143208e-03   1.0638138e-03
  3.7208283e-03   2.2486181e-03
  2.0256376e-02   1.0529917e-03
 -3.0536789e-03   1.2378934e-03
 -5.5930614e-03   1.2950901e-03
  3.0900137e-03   1.4879172e-03
 -9.3325123e-04   6.9934712e-04
 -4.9139881e-01   2.3475116e-04
 -5.4229718e-01   1.3535700e-03
 -1.9176210e-01   4.1622491e-04
 -2.5021888e-03   5.2422145e-04
 -1.8896547e-04   3.9587382e-04
  8.5410140e-02   2.7098751e-04
 -4.1842517e-03   5.4513704e-04
  3.2049976e-03   5.1082880e-04
  4.8608845e-03   6.8945083e-04
 -6.7604501e-03   2.3939446e-04
 -2.1330686e-01   9.9847233e-04
 -8.1475056e-04   9.6106139e-04
 -2.6326634e-02   9.2269108e-04
 -5.3362329e-03   5.1612465e-04
  5.3788479e-03   9.8424207e-04
  5.8710400e-04   8.1043807e-04
  1.8350921e-03   3.0966772e-04
 -3.5262754e-04   5.9577631e-04
  1.9505140e-01   3.7262409e-05
 -7.0541832e-03   7.2632822e-05
 -1.0022392e+00   7.5520984e-05
 -9.0526468e-01   1.9379171e-05
  1.5602659e-02   9.0534792e-05
 -5.4531795e-01   3.7730148e-04
  1.6799225e-01   9.5360173e-04
 -3.7453988e-01   8.0350210e-04
 -5.2216572e-01   4.4332372e-04
 -1.2513835e-03   2.4573866e-04
 -8.3760434e-01   5.5843260e-04
 -1.7499988e-01   2.7196790e-04
  1.1461462e+00   1.3249541e-04
 -2.9779214e-01   3.1714124e-04
  6.2115852e-02   2.1876415e-04
 -1.3384279e+00   6.9312926e-04
  2.9231189e-02   1.3662571e-04
  6.0600650e-02   3.5244684e-05
  8.9267425e-02   1.7179915e-04
  1.6634208e-01   8.8491994e-05
 -1.0614909e+00   6.4436853e-04
  6.2229228e-01   2.9213543e-04
 -3.7958588e-02   1.7716929e-04
 -4.9727395e-01   3.3645073e-04
 -1.1070084e-01   4.1968338e-04
  1.4192855e-01   2.0758111e-03
  2.3375398e-04   2.4191794e-04
  2.3188871e-01   2.6377832e-04
 -1.9901501e-02   4.9667759e-04
 -2.4887996e-03   9.4825629e-04
  1.7743822e+00   1.0043717e-04
  1.4781716e-01   2.2650263e-04
  2.1296217e+00   2.4545242e-04
 -5.3188443e-01   5.8734757e-05
 -6.2440491e-01   1.3707491e-04
  2.1927704e-03   5.7893037e-04
  3.5749248e-03   5.5442919e-04
 -6.4412796e-01   8.5720018e-04
  6.7808491e-04   5.7933532e-04
  7.2161458e-03   1.1045261e-03
 -4.5761970e-01   1.4762046e-03
 -1.4057159e-01   4.5024403e-04
 -1.3860268e-02   2.7801315e-04
 -1.5406714e-02   1.4960753e-04
  1.0703762e+00   1.3163463e-04
 -3.9013261e-01   1.6261092e-03
  4.0499425e-01   3.3066486e-04
 -5.0298810e-01   1.8770032e-04
 -4.6967471e-01   1.4376966e-03
 -5.4225701e-01   3.5993280e-04
 -1.2097692e-01   1.6581496e-03
  1.5284343e-01   5.3459703e-04
  4.3671453e-01   6.2212651e-04
 -2.9397047e-01   1.6092688e-03
 -1.1521589e-02   3.6977523e-04
  5.0808447e-03   3.5214523e-04
 -1.2165860e-03   5.9725525e-04
 -3.1467527e-04   3.3893972e-04
 -5.8272365e-04   9.7306847e-04
 -1.0518572e+00   1.0691576e-03
 -5.8051920e-01   3.8433900e-05
 -4.2370385e-01   1.6921914e-04
 -1.3097815e-01   1.0202248e-04
 -1.3047960e-01   6.5755063e-05
 -5.4120935e-02   2.0304679e-04
  4.6564779e-01   5.6759187e-04
 -8.3993578e-01   3.1483090e-03
 -2.2384386e-01   8.4323675e-04
 -3.8274486e-02   1.0859497e-03
 -2.7951816e-02   1.5966384e-03
 -5.1968479e-01   6.0661137e-04
  2.7647033e-01   4.0181284e-04
  1.5516182e+00   1.2343877e-04
  2.3053990e-01   8.9982052e-05
  6.9532022e-02   1.8526273e-04
  2.1762210e-03   7.0717395e-04
  8.6195499e-01   6.8544765e-04
 -1.0849752e+00   1.6854276e-04
  4.9817551e-02   2.2700042e-04
  3.3225256e-01   6.1152183e-04
 -7.1284198e-03   1.2892137e-03
 -1.0642086e+00   5.7901134e-04
 -3.5829571e-01   4.4488074e-04
 -8.8998742e-02   1.0641280e-03
  1.3555294e-01   8.0542336e-04
  2.3665130e-02   5.1146783e-03
  2.5143577e-03   7.8716391e-04
 -5.1449484e-01   6.0298754e-04
 -2.9896357e-04   1.5298509e-04
 -4.8402157e-02   5.1110442e-04
  3.1862184e-01   1.7804263e-05
 -2.9891317e-03   2.1006433e-04
 -3.2315407e-02   1.1765746e-04
 -2.7125794e-01   1.0389105e-05
  5.0517049e-02   6.5045591e-05
 -8.5875027e-02   3.3336654e-04
 -2.3321964e-02   1.5090402e-03
  6.4681351e-01   2.0148253e-04
  1.6276954e-02   7.6168205e-04
 -4.9761400e-01   4.9294351e-04
  2.1195101e-02   1.0788978e-04
  2.4882859e-01   3.0495183e-04
  2.5522977e-01   8.6479587e-05
 -4.3420297e-01   1.5949932e-04
  3.4560028e-01   2.3048693e-04
  2.1842153e-01   1.1577066e-03
 -4.9552894e-01   1.9902592e-04
  2.7511202e-02   9.6471194e-05
  1.5087638e-02   2.0954240e-04
  1.1280584e+00   1.0761719e-04
  3.6559638e-01   1.0602396e-03
 -1.0991506e-02   8.8825310e-04
  6.8622760e-02   8.3488114e-05
  8.9702666e-01   1.1611863e-04
  1.3357280e-04   1.4269144e-04
 -2.3887117e-01   3.4315016e-03
  9.6423756e-03   1.0710187e-03
 -2.2401644e-01   3.7697284e-04
 -1.3577075e-03   4.4390603e-04
 -2.4810900e-01   7.2304852e-04
 -2.6517175e-03   1.0544752e-03
  2.4780753e-04   1.0609297e-03
 -5.8887568e-03   4.5484697e-04
  2.1928339e-03   9.2324661e-04
 -4.0036384e-03   5.5982341e-04
 -1.1876302e-03   1.0696203e-03
  3.4877469e-03   9.5571246e-04
 -2.4399289e-03   7.5582281e-04
  1.4585397e-03   2.7162477e-04
  1.0061462e-03   8.9415500e-04
 -2.7777927e-03   4.6935675e-04
 -1.5622071e-03   7.3903531e-04
  7.3759560e-04   9.4768184e-04
  2.2876163e-03   5.7951722e-04
 -3.6997788e-03   7.0652436e-04
 -1.7354477e-03   4.4581766e-04
  1.2012514e-03   9.2682027e-04
  1.9385130e-04   4.4360314e-04
 -3.2905914e-04   1.0688365e-03
  9.6838921e-04   7.7918090e-04
  2.0987492e-03   4.0022851e-04
  9.8671089e-04   1.5498309e-03
 -2.5487345e-04   4.2562696e-04
  3.2192189e-03   7.4439251e-04
  2.7565940e-04   4.9566902e-04
 -2.0660725e-03   5.1071914e-04
  1.4716825e-03   1.5633119e-03
 -6.2560602e-03   1.8234922e-04
 -1.3377866e-03   3.6056631e-04
 -5.6368597e-03   8.0783770e-04
  1.8147507e-01   4.4633861e-04
  2.8255272e-01   2.0946926e-03
  9.6724206e-01   1.0758379e-03
 -2.9885301e-01   4.8177008e-04
  8.9096332e-01   5.9270236e-04
 -2.9152995e-03   1.1278199e-03
  5.8638211e-03   9.2871586e-04
  3.0954475e-02   7.5602182e-04
 -4.4246693e-03   1.2742123e-03
  1.4426771e-03   1.0097007e-03
  1.0489140e-04   8.6630316e-04
  5.9640687e-04   4.1834277e-04
  5.7193744e-01   5.3578039e-04
  1.3925711e-03   3.9541331e-04
 -3.6547878e-01   9.4356318e-04
 -6.0190074e-04   1.0157035e-03
  1.4616354e-01   9.6373027e-04
  3.5448000e-02   5.2474439e-04
 -5.7983241e-04   5.5700191e-04
  7.1408883e-02   1.4881826e-03
 -2.8181108e-04   8.0503954e-04
 -2.3559930e-03   1.0118441e-03
 -3.2628709e-03   7.4110803e-04
  2.1190604e-03   6.2331691e-04
  4.0515483e-04   1.2805013e-03
 -3.0365621e-03   2.0836896e-04
 -3.1139428e-04   6.1027211e-04
  1.3624693e-03   1.0022231e-03
 -5.8432011e-04   9.7750826e-04
 -2.1807517e-05   5.9751276e-04
  1.4552141e+00   6.6217261e-05
  4.1122764e-01   2.0174464e-04
  5.2636679e-02   1.0099432e-04
 -1.7264359e-01   6.5269363e-05
  7.4676126e-01   2.1858621e-04
 -8.9929694e-01   2.9716035e-04
 -1.0081520e-02   2.0723736e-03
 -1.1366777e+00   5.1224453e-04
 -1.1465564e-02   6.2818622e-04
  2.0772365e-01   8.3790044e-04
 -1.1421351e+00   7.1843783e-04
 -1.0265877e+00   3.6264583e-04
  7.1615660e-01   2.6568019e-05
 -7.5814325e-01   2.7427927e-04
  1.0938867e+00   1.7931662e-04
 -1.0360601e+00   3.9276091e-04
  1.8322417e-01   1.1103632e-04
  5.9131777e-01   7.4085918e-05
  1.3958926e-01   2.9062032e-04
 -2.8440086e-02   1.0387527e-04
 -1.0513605e+00   9.9930498e-05
 -2.7586284e-01   7.3267729e-04
  1.3736238e+00   4.5306614e-04
 -4.3094024e-01   1.1903278e-03
 -3.5172814e-01   6.3537288e-04
  3.3392954e-01   1.9328394e-03
  4.8979184e-01   3.4596708e-03
 -2.1280600e-01   6.0043833e-04
 -1.0412089e+00   8.2275743e-04
 -1.4093566e-01   6.2141113e-04
  1.4942116e+00   3.0811739e-04
  1.2140506e-03   2.2299498e-04
  9.4631985e-02   3.7547559e-04
 -6.5061724e-01   2.3721314e-04
  2.0676899e-01   5.1984261e-04
 -1.9391765e-03   4.6241307e-04
  3.6895199e-04   5.8072305e-04
  8.0913836e-03   1.2985487e-03
  7.2613380e-05   4.3236199e-04
 -1.1869310e-02   1.1598183e-03
  1.1207103e-03   3.8207791e-04
 -1.7105686e-04   1.2219832e-03
 -3.6024980e-04   5.0490984e-04
  1.8808614e-01   4.8085873e-04
  2.3896843e-03   2.8981591e-04
  3.0705079e-03   5.5885600e-04
 -1.2511402e-05   2.6697759e-04
 -1.4044336e-02   6.1910949e-04
  3.4020824e-04   5.4506341e-04
  6.4119126e-04   3.2498280e-04
  1.5725052e-03   6.3159107e-04
  2.5819885e-03   8.9137402e-04
 -5.4324553e-03   3.9085321e-04
  3.0862985e-03   8.0921839e-04
 -4.4052998e-04   5.2650954e-04
  3.1438327e-04   3.7055515e-04
 -2.3857141e-03   9.5036591e-04
 -3.0817450e-03   8.3154172e-04
  5.6247297e-04   8.7288447e-04
 -2.4190778e-03   5.1506894e-04
 -1.0930670e-04   3.8834664e-04
 -5.2619656e-04   8.5723313e-04
  1.1783498e-04   4.5187873e-04
  1.0862190e-05   1.7031769e-03
  4.2179869e-05   9.6674642e-04
  2.4764647e-03   6.2437280e-04
  7.4099377e-04   9.7692269e-04
  1.3360524e-03   9.3355012e-04
  8.2468723e-05   7.0644950e-04
  2.5735330e-03   5.1411765e-04
 -3.1784272e-03   8.3711022e-04
  4.2977463e-03   1.0411734e-03
 -3.4225365e-04   1.2740790e-03
 -3.0983740e-04   1.5266668e-03
  2.2997777e-04   7.0240226e-04
 -1.2247711e-03   9.6334377e-04
 -2.1621089e-03   3.8206260e-04
 -1.6368553e-04   1.3047763e-03
 -1.9790970e-03   5.7840871e-04
 -8.0902973e-04   6.2761683e-04
 -3.6568905e-04   9.6091902e-04
 -2.2372610e-03   3.6419809e-04
 -8.8457123e-04   9.0736453e-04
  2.1978782e-04   8.3744206e-04
  6.8604870e-04   9.3113130e-04
  6.3255854e-04   4.5777450e-04
  6.0933060e-04   8.7668793e-04
 -4.5754912e-04   5.5566634e-04
 -3.6541937e-04   7.5137115e-04
 -5.3065020e-04   9.5849897e-04
  4.2191353e-02   1.9612828e-04
  3.4799159e-03   7.0587796e-04
 -2.1738546e-02   1.7108294e-04
 -5.9997139e-04   1.4616016e-04
  7.7847261e-03   5.1793677e-04
  1.8864444e-03   7.2003197e-04
 -1.4921593e-03   2.1820790e-04
  1.1740691e-02   1.6161697e-03
  1.7836511e-02   2.8364878e-04
  1.0239794e-03   6.8709737e-04
  5.5558339e-04   7.6405157e-04
  3.2110561e-02   7.3213462e-04
  2.3954631e-01   2.2552576e-04
  1.9296323e-01   4.5564075e-04
  4.0706995e-04   5.4531102e-04
  3.5744730e-02   1.0874143e-03
 -1.0267853e-01   2.1735024e-04
 -1.0129811e-01   1.4610708e-04
  6.2080758e-04   3.3282925e-04
 -3.5915813e-01   5.2905100e-04
  1.3358937e-02   1.4623954e-03
 -2.4247484e-03   4.8582800e-04
  1.5057266e-03   3.6474105e-04
  1.7966875e-03   4.1661283e-04
 -6.3929561e-05   6.1018392e-04
 -2.3682297e-03   4.7882574e-04
  5.7638134e-04   7.4869418e-04
  7.4022249e-03   6.9712626e-04
  1.8381940e-04   1.0279618e-03
 -1.5107410e-03   9.4579544e-04
 -2.1677098e-01   3.2179472e-05
  1.1158794e+00   2.6871046e-04
  2.5100306e-02   1.0963303e-04
 -3.8231084e-01   5.8349211e-05
 -4.7468790e-04   4.5229591e-04
 -8.0346836e-05   2.9924512e-04
 -7.8327410e-02   1.3210501e-03
 -1.3096204e-03   6.6686090e-04
  2.4860503e-01   1.5358506e-03
 -6.6480064e-03   5.7427486e-04
 -1.2604395e-01   5.2546908e-04
  3.0597720e-01   1.0007528e-03
  2.1330513e-01   1.6120271e-04
  1.6954854e-01   1.0474992e-03
  2.5291577e-01   3.7951203e-04
  5.2817184e-01   1.4485688e-03
 -1.8750058e-01   2.2361593e-04
 -1.2503795e-01   9.8761127e-05
  4.2808244e-01   4.8937416e-04
 -6.8629873e-01   3.2089718e-04
  2.4999594e-02   1.2057205e-03
 -2.0862522e-03   5.4478133e-04
  3.2397595e-01   2.4219010e-04
  4.3040518e-02   3.6309974e-04
  1.1233439e-03   5.0801417e-04
  1.3305781e-03   2.9124573e-04
 -2.4220126e-03   1.9827927e-03
  2.0914418e-01   1.2638449e-03
  4.4688457e-03   8.6019107e-04
 -4.1983435e-03   1.4952769e-03
  1.5057205e-01   1.6034455e-05
 -6.2686633e-03   1.0634944e-04
 -6.4365357e-01   1.4883844e-04
 -5.4798198e-01   9.5336793e-05
  8.9442962e-01   2.7851627e-04
 -1.7367469e-01   9.7003947e-05
 -8.8755524e-04   5.2863162e-04
  3.0597537e+00   8.1422803e-04
  9.1305375e-01   9.8328805e-04
  7.4129360e-04   5.3601438e-04
  2.4103862e-03   7.5211033e-04
  5.2760017e-01   5.0204364e-04
  8.7129109e-02   6.9601410e-05
  7.1941599e-02   3.5625388e-04
  7.6894231e-02   8.4661180e-05
  5.8553165e-01   1.2059473e-03
  3.5985506e-01   2.3554024e-04
 -8.8251285e-02   5.7058845e-05
  1.1911902e+00   1.6394119e-04
 -1.2024391e+00   2.2138095e-04
  2.7819780e-01   1.3222804e-03
 -1.6554318e-01   5.4598757e-04
  1.9598277e-01   2.0680919e-04
  5.0624985e-01   6.0223427e-04
 -3.1151462e-01   4.3372044e-04
  3.0460558e-04   2.0176114e-03
  7.1333302e-04   9.4943459e-04
  2.6891792e-01   6.0394377e-04
  1.2526826e-03   6.6114747e-04
 -3.0912480e-03   8.8023319e-04
 -5.0778717e-01   3.1059608e-04
  4.4881008e-03   6.2844373e-04
 -4.2206860e-01   2.4569570e-03
 -7.0599712e-02   7.6574291e-04
  3.2054530e-05   4.1350949e-04
  1.3438801e-03   9.1432396e-04
 -9.3415321e-05   8.5251627e-04
  2.7234307e-03   8.5170171e-04
  6.1947713e-04   5.8080285e-04
  2.0620253e-04   1.0440327e-03
  2.7833998e-04   9.7549602e-04
  5.1989360e-04   2.8592776e-04
 -1.4200221e-03   4.4133462e-04
  2.9265703e-04   7.2190567e-04
 -7.5199729e-04   1.4082107e-04
  8.4253005e-04   8.9181704e-04
 -3.3935723e-03   7.8954030e-04
 -1.3044511e-03   8.4859558e-04
 -8.6291949e-04   4.9664272e-04
  3.4010917e-04   6.7557057e-04
  3.0422266e-04   4.6283868e-04
 -1.1159088e-03   8.3110324e-04
 -8.3192661e-03   1.2113201e-03
 -4.0864870e-01   3.3207695e-04
  9.3311258e-04   1.5998755e-03
  1.1246653e-03   7.5343985e-04
  4.1956690e-04   8.0905680e-04
 -2.2170004e-03   8.1278110e-04
 -2.5028677e-03   8.5850799e-04
 -5.9276709e-04   9.2369033e-04
 -2.4700159e-01   5.5870251e-04
 -2.6660823e-04   1.2972952e-03
  1.1377237e-01   9.9443318e-04
 -2.7155170e-01   5.1949196e-04
 -4.6380023e-03   5.3226139e-04
 -2.2294209e-03   1.0386597e-03
  4.9505876e-03   8.7976840e-04
 -3.6375277e-02   9.5383707e-04
  6.9606199e-04   9.8700053e-04
 -1.3568670e-03   7.7146053e-04
  1.0191840e-03   1.0630748e-03
  5.2744773e-04   3.3473357e-04
 -1.4077525e-03   5.1456055e-04
  2.2676175e-03   9.8922069e-04
 -1.9703593e-04   3.9266667e-04
  1.8802063e-03   8.5779646e-04
  1.2132699e-03   5.9396867e-04
  1.2404186e-03   2.3958809e-04
 -5.5983209e-04   2.8677887e-04
 -5.3684355e-04   5.4202729e-04
 -2.1473952e-03   8.1052585e-04
  2.7810184e-03   6.8789528e-04
  1.9624345e-03   5.4302177e-04
 -3.2216602e-03   1.9630931e-04
 -2.5725244e-03   9.0283790e-04
  4.1112248e-03   8.1978925e-04
 -2.0300595e-04   7.1529223e-04
 -8.9533057e-04   7.1463652e-04
 -9.2258677e-04   1.3357891e-03
 -1.0406209e-02   8.5377076e-04
 -3.8958504e-03   4.2675526e-04
  3.2274474e-03   4.9391593e-04
  3.1043609e-04   1.2277398e-03
  1.0680890e-04   7.3447294e-04
  1.1189750e-03   1.3824106e-03
 -6.4729614e-04   4.2214300e-04
 -2.2921208e-04   8.3280582e-04
  7.8937849e-03   8.0531015e-04
 -1.6445399e-04   8.5729838e-04
 -6.9774507e-04   5.1325641e-04
 -3.7410500e-05   6.8283465e-04
 -6.1615894e-04   8.9125813e-04
 -6.4829132e-04   3.7583575e-04
  8.6029933e-04   6.8865967e-04
  4.9382541e-03   6.4463407e-04
  2.1415504e-04   5.9164607e-04
 -2.4351159e-04   7.7354547e-04
 -4.9213471e-05   6.0820614e-04
 -6.4460328e-04   8.1984309e-04
  1.8497963e-03   6.4943108e-04
  1.3104804e-03   9.9039776e-04
 -1.5585277e-03   5.9631251e-04
  1.9871281e-03   8.0466759e-04
  2.4279545e-04   1.0186679e-03
  5.1963748e-04   1.4406411e-03
 -7.7724020e-05   7.1928883e-04
 -1.1294977e-04   6.8142748e-04
  5.6780730e-03   6.5508165e-04
 -3.8072830e-03   1.3232658e-03
 -6.0278117e-03   9.9688559e-04
  2.5143454e+00   4.2670974e-05
  4.4515234e-01   1.3665000e-03
  6.1742777e-01   3.1645203e-04
 -1.5537838e+00   1.9213569e-04
  3.9586380e-02   6.2736426e-04
  8.9142437e-04   7.8044820e-04
 -8.1963120e-03   2.4077783e-03
 -1.4429480e-03   3.6732934e-04
  1.3204658e-03   1.2297587e-03
 -2.4206024e-03   6.7697134e-04
  2.8672572e-02   1.5279899e-03
  5.4166035e-04   9.2929107e-04
 -2.3871113e-03   1.1603141e-03
  1.4365942e-06   6.8501948e-04
 -1.1459151e-01   2.2114879e-04
  3.8921717e-04   1.4624828e-03
  2.1100350e-01   2.3856672e-04
  6.4241660e-01   1.9929437e-04
  5.3177607e-01   1.1482470e-03
  7.5472039e-01   3.6421415e-04
 -7.3217624e-04   1.0972499e-03
 -1.8651888e-03   6.4109976e-04
  7.4616717e-03   8.3215366e-04
  2.5878449e-03   9.2865503e-04
  2.2108113e-02   9.3287299e-04
 -1.0317578e-03   9.9518697e-04
  3.2006222e-04   5.0093728e-04
 -6.8810219e-03   2.4296594e-04
 -3.6797342e-03   1.3704873e-03
  1.5921512e-03   1.2944259e-03
  2.2346301e+00   1.6221114e-04
  2.2048579e-01   1.5206075e-04
  1.7868156e+00   1.0306302e-04
  1.1075427e-01   1.7925235e-04
  3.8920212e-01   5.9714890e-04
  1.3652376e+00   3.9438906e-04
 -1.2492606e-02   4.8516993e-04
 -3.2558295e-01   1.0357719e-03
 -1.3030303e-03   6.3607964e-04
 -1.3267724e-03   8.6450076e-04
  3.4167632e-01   1.2461519e-03
 -3.0471888e-01   1.1603808e-03
 -1.1639657e-01   1.0945550e-04
  4.7999360e-02   1.0267169e-03
 -3.3977896e-01   3.1713975e-04
  5.7490575e-01   4.7846694e-04
 -8.7517422e-01   2.3537061e-04
 -2.3203860e-01   6.8671114e-05
  4.1551653e-02   1.1026171e-03
 -3.7402841e-01   6.6126126e-04
 -4.1928582e-04   6.1012432e-04
 -2.0262920e-03   8.0694660e-04
  1.2812929e-02   7.9054857e-04
 -1.7700301e-03   4.8549994e-04
  1.5286572e-02   1.4586935e-03
 -5.2294682e-04   8.1338012e-04
  2.9459347e-03   1.0858147e-03
 -5.1140356e-01   9.7755762e-04
 -6.6058175e-04   1.7887205e-03
 -3.6405935e-04   9.0528314e-04
 -9.7990036e-01   5.8383093e-04
  3.1804646e-04   3.7950807e-04
  9.9068449e-04   5.0981197e-04
  1.0195726e-03   3.3387466e-04
 -2.5524313e-04   8.5084146e-04
 -9.5220366e-03   5.3234451e-04
 -5.4321473e-04   7.7091472e-04
  4.5637431e-04   3.8988126e-04
  9.7482954e-04   6.7637797e-04
 -7.2599393e-03   1.0470493e-03
  6.9373997e-04   2.5087519e-04
  1.7901439e-03   1.3874007e-03
  4.1493326e-03   7.0579955e-04
  1.2692078e-03   4.5461257e-04
 -2.3075129e-04   7.2561909e-04
  4.8950152e-04   1.2503236e-03
 -5.1967599e-03   9.5272122e-04
 -2.6932051e-03   8.0195459e-04
  8.9346478e-04   1.0571483e-03
  1.9989156e-03   6.8032421e-04
  5.9544691e-04   3.6485840e-04
 -1.4526353e-04   6.2008220e-04
 -1.8507339e-03   7.0848933e-04
 -7.5193663e-04   2.6096107e-04
  4.6621475e-04   2.8331098e-04
 -3.9411555e-03   1.0801428e-03
 -6.8866495e-05   4.4555881e-04
  1.8096461e-03   5.9885252e-04
 -1.2987394e-02   2.5716535e-04
  7.0848450e-04   6.2590686e-04
  1.7636588e+00   3.9582228e-05
 -4.5253846e-01   5.7612997e-05
  2.4831207e-01   4.0944873e-05
 -7.4959511e-01   4.1219479e-05
  1.2434953e+00   2.0445655e-04
  1.4952953e+00   6.3473574e-04
 -4.9927974e-01   1.4825675e-03
 -7.8209452e-02   6.2237593e-04
  2.2256544e-01   7.2585500e-04
 -4.7640568e-01   8.2146289e-04
  4.0990829e-02   1.9689764e-04
  1.0771358e+00   1.9445454e-04
  2.3355418e-01   1.0816690e-04
  1.5404072e+00   5.4823584e-05
 -5.1601410e-01   2.4752054e-04
  2.0401582e-01   1.2277762e-03
 -1.4316800e+00   2.5992090e-04
  8.3766872e-01   1.0024566e-04
  1.1356941e+00   2.9011242e-04
 -8.5089898e-01   1.8469096e-04
  2.3655809e-01   9.8021643e-04
 -2.0107057e-02   6.5179804e-04
  7.3854405e-01   1.4643501e-04
  5.8636051e-02   1.8796076e-04
 -1.4857331e-01   8.3616492e-04
 -3.6037481e-01   2.1099932e-03
  3.5471871e-02   6.6831359e-04
  4.7393706e-01   3.6009628e-04
 -1.4332302e-03   6.1936938e-04
 -2.2560978e-01   6.0818513e-04
  1.2484146e+00   8.5680484e-05
  1.2286676e+00   7.3445612e-05
  1.9262135e-01   7.5290758e-05
  9.1272622e-01   6.2050014e-05
  3.1478435e-01   3.7375354e-04
  1.2769133e+00   1.1619675e-03
 -3.4573328e-01   1.3756998e-03
 -4.2978254e-01   1.6191743e-03
  9.1708027e-02   3.0165752e-03
  3.2771707e-02   1.7708229e-03
  2.0340787e-01   5.7464797e-04
 -6.7615736e-01   7.4479426e-04
  1.0441308e+00   4.5212437e-04
  6.6263807e-01   1.6829714e-03
  1.6223454e-01   3.3154737e-04
 -9.9813379e-03   4.3919205e-04
  1.3363695e-01   3.2306038e-04
  1.0893386e-03   3.1994557e-04
  1.7241079e-01   8.8558620e-04
  3.4773073e-01   2.1061409e-04
  4.8441961e-03   7.3936774e-04
  1.8127289e-01   1.8546294e-04
  2.5193587e-02   1.1137406e-03
 -7.3312828e-04   1.0303218e-03
 -9.6677197e-04   5.3918309e-04
  2.8194573e-03   5.5449858e-04
  5.0675296e-03   2.0164428e-03
 -8.7287892e-03   5.9546623e-04
 -7.7128723e-02   3.1292841e-03
 -3.5847791e-02   1.4544724e-03
  9.0965006e-04   1.5737202e-03
 -1.1733450e-03   1.3519840e-03
  2.7834077e-03   5.4507208e-04
  2.3315885e-04   3.7850605e-04
 -1.7723026e-03   7.9700438e-04
  6.6456385e-05   6.0921931e-04
 -1.2584112e-03   9.4324275e-04
 -1.5323083e-03   1.3956575e-03
 -4.1630534e-03   9.3877380e-04
  7.9651905e-04   9.8780415e-04
 -4.9177144e-04   1.2373215e-03
  1.4124757e-03   1.1365231e-03
  2.2334408e-04   6.1657204e-04
 -1.3023985e-03   6.9038634e-04
  2.1526332e-03   3.3782347e-04
 -2.1179866e-03   1.1024433e-03
 -6.8951352e-04   8.6036097e-04
  1.3910381e-03   1.4834725e-03
  4.5980024e-04   9.4778632e-04
  1.4075686e-03   1.2245873e-03
  1.2349923e-03   1.1925437e-03
  8.2337338e-04   6.7149970e-04
 -9.2671402e-03   7.7842758e-04
 -4.2258436e-03   6.4973882e-04
  1.9413468e-03   1.3347375e-03
 -1.1338219e-03   7.6977338e-04
 -1.5798013e-03   8.4083440e-04
  2.7056849e-03   1.2781339e-03
  3.5034143e-05   7.8097434e-04
 -1.0135755e-03   1.0238151e-03
 -4.4843662e-01   1.1340909e-04
  7.2831038e-04   3.4222682e-04
  5.4555122e-02   8.1681425e-04
  9.9698663e-02   3.3777120e-04
  2.4958192e-03   4.1307966e-04
 -2.3407801e-03   8.7166711e-04
  4.9243192e-04   1.2461353e-03
 -3.9598942e-03   7.4176549e-04
  9.6999102e-05   7.6427835e-04
  1.9411210e-03   5.9132272e-04
  4.2037638e-03   1.1174512e-03
 -1.6964627e-03   1.0949100e-03
 -7.3077730e-03   5.7889597e-04
  1.7778212e-03   5.6841946e-04
 -9.8296104e-04   7.4544467e-04
  2.4522463e-04   6.8808568e-04
 -4.3114991e-04   5.0033245e-04
  8.9266926e-02   2.5799568e-04
 -9.3908636e-03   7.8558456e-05
 -1.1543296e-03   5.8947300e-04
  5.2734395e-04   6.8653678e-04
  3.7746495e-04   8.4218365e-04
  5.3441105e-04   4.4129166e-04
  1.7335835e-04   7.4488984e-04
  5.6093815e-03   1.5413611e-03
 -1.2631416e-03   5.0187396e-04
 -2.7424346e-03   1.2533853e-03
  1.1847213e-04   7.0434966e-04
 -4.1067470e-03   6.0232409e-04
  3.4208347e-03   1.0577261e-03
 -8.9438438e-01   1.5155529e-04
  2.4014895e-03   6.7374564e-04
 -1.6174874e-03   6.6160440e-04
 -7.2481749e-03   5.4899161e-04
  2.5457117e-01   1.9695619e-03
 -2.6154423e+00   1.6226497e-05
 -6.8917656e-01   1.9351197e-04
 -7.2478247e-01   1.7880290e-04
 -1.2988591e+00   2.6743786e-05
  6.4836502e-01   7.5874173e-05
  6.3562763e-01   7.9318044e-05
  1.0153296e+00   7.4215881e-05
 -1.8007887e-04   1.0110419e-03
  2.5006044e-01   3.6294624e-04
  4.8631659e-01   2.6911808e-05
  4.4575810e-01   8.9434447e-04
  8.2298811e-04   8.5388927e-04
 -1.5894920e-02   3.5087171e-04
 -1.5466863e+00   8.9089546e-05
  4.9597807e-02   2.6812311e-04
 -6.5085880e-04   1.0368265e-03
 -5.5883247e-03   6.9473212e-04
 -2.4532655e-04   4.3619386e-04
  1.7872754e+00   2.2715889e-04
  2.6842913e-02   6.9819529e-05
  1.7252225e-01   4.3565209e-04
  1.6850359e+00   5.5422432e-05
 -3.6629918e-01   3.8579496e-05
  2.1317657e-03   1.6611434e-03
 -2.5759724e-03   3.8273167e-04
  3.1433883e-01   6.8762449e-05
 -2.2263352e-02   4.6104640e-05
 -1.5083332e-01   7.5654651e-05
 -1.5958627e-05   4.0515221e-04
  6.4074151e-02   4.0661507e-05
 -4.9616435e-01   1.5708056e-05
 -5.0036311e-01   4.9462775e-05