324
Lattice="17.40605354 0.0 0.0 0.0 17.40605354 0.0 0.0 0.0 17.40605354" Properties=species:S:1:pos:R:3:forces:R:3 virial="160.00835215954558 -12.914262942913505 -13.102178020789097 -12.914262942913505 148.34670958074318 15.492321926114561 -13.102178020789097 15.492321926114561 153.06218245651493" config_type=low energy=-1154.94650601 free_energy=-1155.03021565 pbc="T T T"
Cu       1.97531485       0.98287859       3.61127065      -0.44534791       0.36476445       0.96967580
Cu       1.53146797       2.15388007       9.91834963      -0.17794661      -0.05233320      -0.05818589
Cu       1.43143694       0.89916522      16.19990733      -0.14597634       0.29222633       0.27969132
Cu       1.52350731       7.42161713       5.19650749      -0.81529294      -0.72344640      -0.54033691
Cu       1.52023915       7.20573333      10.31557109       0.15810987      -0.92125193      -0.02053846
Cu       1.15231817       6.79234809      16.41192176       0.12589731       0.19069458      -0.21573562
Cu       1.75647445      12.38543527       4.13487347      -0.28567898       0.36211715       0.31139710
Cu       1.55115700      13.26702821      10.37437553      -0.28278250      -0.73203279       0.70344757
Cu       1.70252543      13.10138576      16.15726458      -1.50945389      -0.51917920       0.36636441
Cu       6.60997616       1.96512395       5.43106154       0.88000645       0.14732058      -0.87529375
Cu       7.70349650       0.34321953      10.31066815      -0.27745038       0.44004613       0.06889103
Cu       6.88181294       1.88382602      16.00782352      -0.31377212       0.50404165      -0.40598637
Cu       6.63609586       6.92341985       4.81156408       0.47224965      -0.05348281      -0.24584650
Cu       7.15867850       8.08339981      10.67860062      -0.21933656      -0.65922232      -0.13219019
Cu       7.43092101       6.46387375      15.04380856      -0.33781454       0.71951344       0.12114667
Cu       7.00514005      12.72941892       3.63722900       0.25356865      -0.17359411       0.11482333
Cu       6.99190953      12.69057192       9.96609269       0.32207180       0.32877225      -0.11271869
Cu       6.82498357      13.19662159      16.33063915       0.13443404       0.21656481      -0.02553523
Cu      12.54481937       0.93119010       3.61102453      -0.05075043       0.10121408      -0.45301085
Cu      12.28075648       2.02213713       9.73760447      -0.09078569      -1.11307501      -0.22643471
Cu      12.66696252       1.41521085      15.64614435       0.59383467      -0.00132512      -0.31265974
Cu      13.97012764       6.83905862       5.06210003      -0.18282236       0.25937406      -0.59498334
Cu      13.85431559       8.40929526       9.09326475       0.01953135       0.11465785       0.26310114
Cu      12.99886689       7.92614552      16.19831624       0.27504753      -0.36745534       0.44079085
Cu      13.50705055      13.34673766       4.27341886       0.40985242      -0.04174886      -0.22814383
Cu      12.61630499      13.14544449      10.95345996       0.04153321      -0.17372198       0.06250641
Cu      12.56920107      13.49055884      15.72303716       1.46230205      -0.38639219       0.45251070
Cu       2.43672826       5.19982369       4.73429182      -1.20289911      -0.30974455       0.04561744
Cu       2.09597344       4.57240734      10.23928297       0.03939441       0.38602839      -0.25112151
Cu       1.13012266       4.43584293      15.85543039      -0.25086632       0.42462299       0.23536258
Cu       1.42118391      10.12014340       5.06892094       0.02343304      -0.38264200      -1.53933160
Cu       0.88784432       9.44599581       9.56158680      -0.19336072       1.07332464       0.84889294
Cu       0.98630758       9.78497992      15.91263451       0.17478275       0.51453882      -0.73482784
Cu       0.64491465      15.64355311       3.89183170       0.47544613      -0.20762954       0.32371953
Cu       1.43944425      16.48079351      10.63938722       0.42609824      -0.21445706       0.25365926
Cu       2.02710081      15.33764590      15.35423752       0.44544532       0.35348523       0.55852533
Cu       6.99885594       4.20748804       4.78044937      -0.15869919       0.79472760      -0.46801622
Cu       7.82445935       4.22904004       9.72369077      -0.14598028       0.06560347      -0.43739517
Cu       6.93639710       4.37119337      15.94643742       0.19616089      -0.84087176      -0.05624428
Cu       7.67867791      10.05525068       4.18999043      -0.51027302      -0.36093409      -0.52810875
Cu       7.32099935      10.30854566       9.92536201      -0.09565083       0.34675409       0.60836635
Cu       6.84253078      10.32339232      16.09313511       0.37716838       0.00549469       1.00757289
Cu       7.35057467      15.20840090       4.48079215       0.12736931      -0.22671492       0.00387552
Cu       6.99781332      15.26968414       9.49418256      -0.17044774       0.26715847      -0.04823997
Cu       7.04585350      15.81581856      15.61818083       0.10174921      -0.04463087       0.61308020
Cu      13.16300337       3.99090974       3.96379372       0.75540716      -0.34128553      -0.33706915
Cu      13.11109608       4.14895374      10.09415460       0.39416685       0.65726414       0.13676052
Cu      12.94824765       3.97729785      15.90171378      -0.32986763      -0.20390758      -0.15502331
Cu      13.01899804      10.81706351       4.03387432      -0.22635243       0.15761358       0.43772006
Cu      13.35430373      10.72225604      10.34237154       0.00282271      -0.42494681       0.18009716
Cu      13.93337232      10.22286801      15.92434252       0.35324889      -0.28360673      -0.00155343
Cu      13.52805130      15.96734626       3.86088982      -0.97451528       0.17816564       0.24025339
Cu      13.29919721      15.60770291      10.09547154       0.32353967       0.05087070       0.91769969
Cu      12.53285654      15.95743560      16.32621836       0.34797300      -0.12048340      -0.39083705
Cu       1.38209948       4.61054488       0.88226934      -0.24575823       0.10205979       0.36390316
Cu       1.76003504       4.82813204       7.33561817      -0.52210317       0.62327179      -0.05059356
Cu       0.65350958       3.87158271      12.40779944      -0.64120092       0.47293092      -0.06644521
Cu       0.96197758      10.56467626       2.15114314      -0.03748315       0.84114221      -0.50897982
Cu       1.45528741      10.27707308       7.31611556      -0.15086698       0.48011541       1.50771979
Cu       1.84803343       9.99229629      13.74855084       0.27692802      -0.14834126      -0.92050417
Cu       1.43373141      16.38691431       1.67475860      -0.12927716      -0.08911014      -0.41109846
Cu       1.46725164      15.86263562       6.54500284      -0.13536931      -0.27069984      -0.03358729
Cu       1.76009787      16.28849370      13.24175636      -0.39909420       0.45888019      -0.77997268
Cu       6.49913093       5.35212874       2.28812565       0.42173245      -0.39665470       0.23775405
Cu       6.56818649       3.38413436       7.39211474       0.45030248       0.42613770       0.30867213
Cu       7.86277599       4.80905326      12.18943997       0.31404408      -0.17375447       0.70241511
Cu       7.57318365      10.09228345       1.44819758       0.14969461      -0.16701549       0.37108991
Cu       8.26695987      11.52110496       5.94933183       0.30921542       0.25916306       0.43370406
Cu       7.10035586      10.01403523      13.77841754      -0.55404602      -0.14687759      -0.54685581
Cu       7.91092914      16.11570624       2.15735466      -0.64732619      -0.19752898      -0.44568467
Cu       6.40536208      15.63734907       6.89398499       0.87140646      -0.85368882       0.35490779
Cu       7.09139992      16.08991534      13.15064959      -0.40829108      -0.19051345      -0.10038743
Cu      12.00267197       3.99965053       0.81059748       0.06034191       0.22848143       0.37702228
Cu      13.46461633       3.44984883       6.26854946       0.07068490       0.38003257      -0.06152127
Cu      13.22516891       4.55763013      12.50382446      -0.15977582      -0.39519203       0.24426909
Cu      13.78677140      10.83834206       0.75574752      -0.15208482      -0.51996469       0.34933268
Cu      13.68736647      10.32415071       7.47767385      -0.02758722       0.34437592       0.39938470
Cu      12.97156236      10.82107491      13.90405670      -0.27628164      -0.06319982      -0.86131812
Cu      13.27140896      16.84489821       1.53467085       0.42125915      -0.70679623       0.00777228
Cu      13.34272383      15.88051634       7.80487110       0.05094946       0.24739844      -0.98092353
Cu      13.22343788      16.40787886      12.40236840       0.27026446      -0.68573946      -0.43955184
Cu       1.25608697       1.52041512       1.45462894       0.59243960      -0.27367164      -0.69913576
Cu       2.31413343       0.67409242       6.26556380      -0.49643071       0.84602383      -0.70901495
Cu       1.12215557       1.32396100      13.59825897       0.47136836      -0.61973340      -0.64179492
Cu       1.68087230       7.46016753       1.21246705      -0.47267016      -1.08410532       1.43567741
Cu       1.22510489       7.69603575       7.89904951       0.69176781      -0.75963805      -0.34527228
Cu       1.56911726       7.52157835      13.56381674      -0.48856574       0.26553976       0.13857020
Cu       1.96738117      12.69699214       1.21322421      -0.01738480      -0.34976488      -0.06534151
Cu       1.14158316      13.47688743       6.62893135      -0.23135961      -0.62678186      -0.40243342
Cu       1.39438032      13.83325218      12.67317683       0.17247273       0.05787060       0.19548786
Cu       7.72184266       2.59350180       1.92648878       0.55743362      -0.18716914       0.49643962
Cu       8.17817769       0.84727516       7.44660787      -0.08520418       0.53375693      -0.53360433
Cu       7.21622761       2.01189976      13.14400396       1.31732189       0.01520911      -1.29868534
Cu       7.13962514       7.74120637       2.09951122       0.73305432      -0.56063276      -0.17166184
Cu       7.43907314       7.06457371       7.67827827       0.46014902      -0.35044577      -0.27616796
Cu       6.24110829       6.90605818      12.93429705       0.75490082       0.76607693       0.40240746
Cu       7.06456432      12.36223370       1.26064422      -0.13221014       0.61607600      -0.31609330
Cu       6.46822718      13.17748381       7.07984231       0.17176344       0.65769191       0.53814096
Cu       8.09616332      12.52344091      12.33390830      -0.16323041      -0.31372358       0.05193016
Cu      12.45920421       1.50487291       0.84270990       0.21598090       0.94107842      -0.22078390
Cu      13.40322692       1.13924344       7.05719494      -0.07945907      -0.51213906       0.53864898
Cu      13.50999409       2.07744695      12.87250765      -0.15106974       0.10546281      -0.03646829
Cu      12.58165702       7.25536251       1.43289174       0.07850309      -0.26141999       0.31757948
Cu      12.88392915       7.59290854       7.08278271      -0.20007300       0.16890905      -0.20904783
Cu      12.81377231       6.81931581      12.96823346      -0.18365429       0.95356094       0.67434336
Cu      12.35758889      12.47583030       1.70396544      -0.34891220       0.41527902       0.34150760
Cu      13.94062351      12.79644180       6.52959361       0.46584761       0.20298504       0.61482680
Cu      12.58715820      13.16632792      13.37921823       0.25065370       0.08602509      -0.10522297
Cu       3.69782156       1.59541502       1.81872407      -0.26100388       0.10568594       1.31447906
Cu       4.01597271       1.48861304       8.01744444       0.32006579       0.50864408       0.56342858
Cu       4.58638388       0.91498645      12.95887892      -0.07109468      -0.06877006      -0.35652972
Cu       4.44971068       7.59692707       1.11000649      -0.24050599      -1.38995086       0.34129214
Cu       5.02043203       7.53038965       7.20068296      -0.42887382       0.08671577      -0.25237453
Cu       3.96253404       7.21594407      13.29910565      -0.60551823      -0.00058062       0.12260235
Cu       4.48054777      12.89654001       1.72201691       0.31374438       0.13526706       0.08824076
Cu       3.48117851      13.10666624       7.15718715       0.53728923      -0.38030588       0.01530140
Cu       4.63810319      12.41828606      13.20308289      -0.07611337       0.09786999       0.15907986
Cu       9.42673149       0.80512240       1.47489760      -0.45531296      -0.00520781       0.63702230
Cu      10.76295714       1.38533788       6.42175371      -0.77228959      -0.92205868      -0.07394756
Cu      10.22538771       1.20373791      13.44678453       0.53186285       0.06100696      -0.81250836
Cu       9.72039163       8.20081374       1.83634648       0.17398198      -0.29926002       0.25960825
Cu      10.51950911       7.20947197       7.81772443       0.16713777       0.03868209      -0.44770209
Cu      10.43253942       6.97420009      13.16135101       0.09621370      -0.74127237      -0.23928382
Cu      10.08140954      13.00848496       0.75081934       0.64473770      -0.61292338       0.20174701
Cu      10.31962496      12.96000440       7.51090340      -0.25036929      -0.02122173       0.09573757
Cu      10.08581257      13.54867574      13.21352270       0.10862914      -0.25864500      -0.17233353
Cu      16.65079113       2.35732951       0.89221864      -0.53234067       0.28990733      -0.23048484
Cu      17.08976971       0.99235741       7.65110811       0.49945873      -0.53330099      -1.74453529
Cu      15.81291645       1.24342389      13.32781398       0.12188836       0.25641199       0.16600668
Cu      16.22083828       7.02905492       2.36822256       0.26795785       0.18510836      -0.03633900
Cu      15.29302548       6.77585916       7.09726977       0.42207370       0.19624086       0.13550912
Cu      15.12268183       6.38032991      12.85903171       1.04791281       0.30169415      -0.58577282
Cu      15.59520919      12.69481882       0.85171562      -0.43967537      -0.32516121       0.69728724
Cu      16.31735606      13.53992258       7.66631056      -0.29954832      -0.22574419      -0.12264075
Cu      16.51926437      12.85683019      12.50402323      -0.23303107      -0.17822855       0.10638345
Cu       4.62518789       4.12571214       1.07210011      -0.11692342      -0.10941439       0.11414253
Cu       3.83544705       3.83664006       8.00768905       0.70660791       0.35757251       0.75565227
Cu       4.76462030       4.84176724      13.55408588       0.05033331       0.04946896      -0.10600894
Cu       4.80392944       9.77322648       0.99757870       0.41762000       1.40370858       0.10340075
Cu       4.18049386      10.26381001       7.80892688       0.29899708       0.12967351       0.01195440
Cu       4.37000453       9.69660834      13.12247059       0.26894840      -0.02375036       0.22322139
Cu       4.64112244      16.62915714       0.81136735      -0.16250060       0.11026748       0.66892476
Cu       3.99106587      15.66580727       6.86113298      -0.22259373       0.12764470       0.09340751
Cu       4.16987634      15.82777983      13.53811757       0.10593361       0.06035037       0.07747250
Cu       9.29992769       4.46484455       1.42039228       0.27611151       0.65397483       0.25261807
Cu       9.30767408       5.02106125       7.48753455      -0.13316327       0.34569767       0.46533559
Cu      10.51712866       4.57839990      11.90930381       0.10775200       0.00331299      -0.03842792
Cu      10.40517397      10.52397794       1.33097355       0.21849549      -0.21463859      -0.01877506
Cu       9.94817421       9.61439033       7.23529716      -0.44798533       0.20039757      -0.50969176
Cu       9.44201992      10.34618224      13.52281208       0.37906179       0.32695851      -0.32056723
Cu      10.18761936      15.67186058       1.98619467       0.67942312       0.24714995      -1.06692002
Cu      10.48606443      15.40294192       6.89818577       0.19387056       0.26676221      -0.10106944
Cu       9.53791457      16.19582439      12.92310426       0.16622940       0.11191806      -0.35087961
Cu      14.75817975       2.72471821       2.45510610      -0.15184706      -0.00648834       0.68601610
Cu      15.59776858       3.82903274       7.08266052       0.27045954       0.29024263      -0.22582895
Cu      15.51745078       3.98744767      13.08016100       0.38777834      -0.65906209       0.09034804
Cu      16.03941725      10.07489793       1.45742348       0.31975772      -0.18522604      -0.13410155
Cu      16.27169999      10.78692006       8.13898256      -0.06975530      -0.27737098      -0.22223059
Cu      15.67998955      10.37063079      12.79809085      -0.10799444       0.14130515       0.60269923
Cu      16.23121177      15.02468854       0.92060809       0.18567161       0.88677855       0.27463157
Cu      16.42289628      16.05754008       7.71015710      -0.44491520       0.09042470      -0.20823040
Cu      17.17393720      17.04279843      14.86047635      -0.27627516      -0.39455152      -0.77582629
Cu       4.36727944       4.13353024       3.98971237       0.50667836       0.30395833       0.27184182
Cu       4.31779020       3.42784270      10.61645787      -0.48727872       0.66319729       0.19124563
Cu       4.39160614       4.16179419      15.97721097       0.08606394       0.26817258       0.02979860
Cu       3.84447069      10.34000170       4.82062602       0.51410053       0.28743979       0.36562829
Cu       4.63308398      10.24162878      10.31344024      -0.53352943      -0.39459185      -0.54642582
Cu       3.76079840      10.20382405      15.59853671      -0.15022670       0.14573871      -0.62700764
Cu       5.45284261      16.64529917       4.85032806      -0.49138915      -0.63945620      -0.86004061
Cu       4.70840937      16.50480864       9.06839063       0.33861110      -0.26280560       0.44932165
Cu       4.64419322      15.98873691      15.95990918      -0.38193430      -0.10281141      -0.16786581
Cu      10.94837461       4.74453859       3.78789945      -0.98361359       0.22973327      -0.64329670
Cu      10.78670109       4.03015430       9.36099718      -1.36984343       0.93442811       1.54608819
Cu      10.44222763       3.93593150      16.29957195       0.18762523       0.36690442      -0.30703125
Cu      10.92884049       9.75982347       4.82636584      -0.70539255       0.89085195       1.14031201
Cu       9.66094926      10.09297830      10.66627818      -0.35946554       0.58490134       0.18457133
Cu       9.93271954       9.74427117      15.82791385      -0.00287625      -0.04846064       0.49828535
Cu       9.76482110      15.65093571       4.26660091      -0.10488198       0.02916721       0.96030252
Cu      10.67341135      15.82091940      10.48090649       0.12584603      -0.07404648      -0.05766840
Cu       9.48742553      16.04325145      15.66983851       0.21557452      -0.35456274       0.47067431
Cu      16.00904003       4.14051686       4.26501069      -0.26777811       0.04292979      -0.06866135
Cu      15.79209863       5.24089153       9.72257957      -0.32750504      -0.08332295      -0.28227785
Cu      15.89716610       4.32637608      15.77163016      -0.75548308       0.14752209       0.46396293
Cu      16.53091685      10.23081283       3.99758357      -0.45326287       0.04676419      -0.01232518
Cu      15.96280676      10.85459601      10.53014613       0.05861540       0.27605726      -0.43285507
Cu      16.24413193       9.48290117      16.39206685      -1.33435569      -0.47334845       0.18096069
Cu      15.69369647      15.50900919       3.36596679       0.64332233      -0.16959280      -0.22054350
Cu      16.02171355      16.23635334      10.16094163      -0.20115916       0.21217494       0.06381118
Cu      15.00125633      16.19583901      16.29322553       0.11553344       0.21911224       0.05017643
Cu       4.30603189       1.29652889       4.96241573      -0.55945797       0.42120232      -0.72594654
Cu       3.54847658       0.88001195      10.60195341       0.19105387      -0.04742427      -0.00893757
Cu       4.51846407       1.49781353      17.17122952       1.17628642      -0.01580694      -1.55896762
Cu       4.19707713       6.76151030       4.58981845       0.15729392       0.37377451      -0.23132240
Cu       4.60113151       7.63133083      10.65552524       0.55731265      -0.44040856       0.03328989
Cu       3.69521866       6.81408163      16.00694869      -0.06790456      -0.14647049      -0.07494541
Cu       5.19636998      13.50731356       4.90822791      -0.35066499       0.02096766       0.50741470
Cu       3.98945807      12.81591430      10.75499178       0.28328419      -0.33965711       0.19095091
Cu       3.94235172      13.47999093      15.90914268       0.97495417       0.08346306      -0.73486843
Cu      10.01754951       0.70196664       4.23688930       0.60536133      -0.04762821      -0.23877533
Cu       9.88108101       1.09046889       9.17402031       0.36395218       0.39946872       0.39420794
Cu      10.32835409       1.43865106      15.93363091      -0.64112542       0.33182293      -0.06537234
Cu      11.26507026       7.46932608       4.33137301      -0.44778558      -0.91202435       0.15512045
Cu      10.53994695       7.96738098      10.86469309       0.06233034      -0.35806568      -0.23020098
Cu       9.77047337       7.22746757      15.43377379       0.18636899       0.27426732       0.88207224
Cu      10.19865115      13.12613508       4.49320963      -0.70574296      -0.34513985       0.88029085
Cu      10.19243823      13.13802202      10.31436694      -0.36842703      -0.10351513       0.18441592
Cu      10.34190714      13.70514658      15.81847037      -1.44270420      -0.21558029      -0.05322804
Cu      16.69362916       1.67110403       3.89042685      -0.30680912       0.21734034      -0.09196768
Cu      16.45469192       1.57432654       9.67982229       0.02002873       0.28940866       1.27207855
Cu      15.25083495       1.40274184      15.91105509       0.28749751       0.14718559       0.12654116
Cu      16.36546065       7.77034637       4.97810677      -0.43768672       0.32913932      -0.12984885
Cu      15.52739521       8.07901975      10.75899970       1.10325698      -0.46217874      -0.24769409
Cu      16.62679096       6.49648538      14.99182034      -0.22793537       0.48149188      -0.19292937
Cu      16.10080178      13.43660286       4.53571451       0.65009492      -0.86696640      -0.29193796
Cu      16.42591188      13.91210073      10.20464562      -0.50646463      -0.70341827       0.35279724
Cu      15.81193875      13.87682649      16.27367174       0.10561679      -0.29829699      -1.31279706
Se      17.19945343      17.11486314      17.17446548      -0.43164142       0.08868742       1.62077767
Se      17.40417926      17.34727243       5.44459527       0.28630101       0.42001714       0.24662064
Se      17.17590687       0.32567718      11.62423617       0.24013551      -0.16280016       0.25442426
Se      16.66056167       5.76491052       0.19653889       1.33125388      -0.01892551      -0.15420511
Se      17.21437442       5.68670721       5.80900719       0.54996110      -0.32070014      -0.23375112
Se      17.21049897       5.95504972      11.43313946      -0.47494238      -0.22053607      -0.08941524
Se      17.27391653      11.69286041      16.98662439       0.98081402      -0.03074408       0.53294388
Se      17.20666023      11.51546296       6.03309690      -0.31994893       0.85630839      -0.11483989
Se       0.61298185      11.14223035      11.70023239      -0.68522055       0.45848955      -0.18309631
Se       6.65816430       0.10493657      17.40367657      -0.78419880      -1.15074272       0.43839323
Se       5.76738932       0.41836720       6.83457883       0.10912453      -0.09400766       0.66105490
Se       5.64367109      16.97722895      11.38208281       0.52834656       0.31014131      -0.43210168
Se       5.86843180       5.99320205      17.25722778      -0.44735026      -0.43175853       0.21461982
Se       5.49165776       5.42843897       6.39322171       0.72833451      -0.17727122      -0.94086753
Se       5.85024248       5.54951635      11.19448158      -0.59997376      -0.43946896      -0.48338372
Se       5.11387712      11.69168376      17.03404579       0.19470420      -0.38207550       0.65426142
Se       5.83716496      11.23707559       6.22606668      -0.62710498      -0.85121684      -1.88474874
Se       6.00967706      11.27313536      11.81871157       0.68499674       0.21074926       0.34081371
Se      10.99603273      17.21699299       0.05368984      -0.03125143      -0.33666992       0.80836636
Se      11.99885605      16.86714071       5.64106923      -0.84576408      -0.11656476       0.28034982
Se      11.70774589       0.42008501      11.40948011      -0.82860843      -0.16603891       0.08092810
Se      11.50430202       6.04234387      17.14564401      -0.37039695       0.09041815       0.01483793
Se      11.81877006       5.67280029       5.68728909      -0.09147579       0.33480429       0.87526069
Se      12.07594119       6.16074402      10.88144485      -0.19791553      -0.59733388      -0.05810408
Se      11.67908508      11.34166282      16.88213429       0.01911437       0.56584252       0.11629092
Se      11.80900039      11.89923198       5.98713430       0.07707525      -0.86440912      -0.38291823
Se      11.19933160      11.36775362      12.08996647       0.71852301       0.78486997      -0.20947286
Se       0.84430917       3.21548328       3.15104329       0.05091669       0.20546298      -0.41724947
Se       0.06913302       3.21238744       8.21835121       0.88587227       0.17028769       0.50725419
Se      17.21436502       2.85529842      14.64246170      -0.56795046      -0.04588253      -0.46578097
Se       0.57087069       8.54787252       3.10731615      -0.32783862      -1.39769044       0.17298219
Se      16.48119490       8.33110623       8.49827188      -0.45378644       0.45379319       0.51312188
Se      17.01687611       8.77419020      14.10339657       0.02357405      -0.26515263       0.53630571
Se       0.23996995      13.78142670       2.45143098      -0.55499874       0.82886987       0.75492880
Se       0.75464902      14.76204302       8.82489560      -0.74474600      -0.02041676      -0.50526636
Se      17.36847892      14.66882195      14.38163233      -0.73489842      -0.21359176       0.20613670
Se       5.69556463       2.69613312       2.81546867      -0.63358760      -0.13631971       0.19955240
Se       5.97780205       2.51011897       9.48330899       0.76475216      -0.26652172      -0.91805100
Se       5.46136391       2.60408347      14.31863547      -0.87866478       1.61409456       0.46241541
Se       5.46571821       8.77416270       3.20481946      -0.36144259       0.14854628       0.64927286
Se       6.21583975       8.98466437       8.46492258      -0.20152980      -0.12866972       0.59598539
Se       5.65677541       8.34290353      14.97407121       0.07784389      -0.02325521      -0.85845530
Se       5.71049119      14.68668108       2.77267293       0.39146291      -0.39816261       0.15695977
Se       5.21974335      13.92374817       8.90073900      -0.60544161       0.55072787       0.11357825
Se       5.72408758      14.24331913      14.41542392       0.66204284       0.44398148      -0.47236696
Se      11.16166194       2.69628194       2.62157881      -0.31710257      -0.47005979       0.42990915
Se      11.61812961       3.01317394       7.62936168       0.48789265      -0.53119314       0.33614997
Se      11.51547271       3.12584541      13.95787830       0.83818017      -0.37113040       0.27486754
Se      11.92815596       9.07449719       2.87318540      -0.45353970      -0.14771662      -2.05140950
Se      11.57595457       9.22190680       8.90411734       0.40523428      -0.26398616      -0.06818162
Se      11.77774312       8.69380887      14.42416246      -0.72478375       0.33361219       0.13779361
Se      11.66175910      14.33120734       3.22591107       0.39394839       0.35827631      -1.36128542
Se      11.98683664      14.02721079       8.81923968      -0.28869064       0.95584005      -0.40165838
Se      11.36186098      15.28894272      14.24342061       0.74920467      -0.45433220      -0.15039128
Se       3.48812161      16.80804873       2.94130765       0.16400127       0.17193109       0.29258646
Se       2.48441354      17.23912949       8.45853960      -0.06534141      -0.12479562       0.81962626
Se       3.14235453       0.31588906      14.81178970       0.69380875      -0.96280035      -0.66133029
Se       3.18409286       5.83805580       2.31342552      -0.29946868      -0.21561790       0.48707647
Se       3.42842981       6.15927460       8.68070977      -1.56184863      -0.17940642       0.87105981
Se       2.20259805       5.35970020      13.99291338       1.43417152       0.45764927       0.06606350
Se       3.18732359      11.17653768       2.72335253       0.31610553      -0.19122485      -0.23832066
Se       2.66865575      11.66498810       8.98224981       0.20999373      -0.44572170      -0.59158656
Se       2.61185074      12.16737797      14.19721102      -0.25194135      -0.51175936      -0.04698479