  1.1204270e-01   6.0361185e-06
 -8.2393117e-02   8.6096452e-06
 -1.5072763e+00   2.0186182e-05
  3.2629600e-01   7.7209625e-06
 -5.0870615e-01   3.1416555e-06
  7.8631187e-05   2.6447080e-05
 -3.2236663e-01   7.4746160e-05
  4.0186127e-04   1.7620568e-04
  2.8084141e-01   3.9437375e-05
 -3.6784436e-04   1.3756122e-05
  5.7111269e-01   4.1834533e-05
 -6.9317684e-05   9.8410628e-06
  6.9859222e-02   6.5702428e-05
  1.5496451e-03   6.1660234e-05
 -2.2244932e-01   3.2203199e-05
  5.2602041e-01   7.5791495e-06
  1.7879708e-04   2.7621592e-05
  5.7530898e-01   4.5391647e-05
 -4.5508432e-01   3.9766343e-05
  5.8693790e-01   8.2653942e-06
 -1.8692800e-03   5.5499986e-05
 -1.1185415e-01   1.4189056e-04
  8.1201106e-05   3.7686073e-05
  1.2962163e-02   1.5416437e-04
 -1.0306191e-01   8.9471490e-05
 -1.6154738e-02   1.1425388e-05
  3.9445701e-01   2.1829529e-04
 -1.9076153e-05   1.2803548e-05
 -3.7147123e-01   4.6218646e-04
  8.3171378e-04   1.5812115e-05
 -1.1091399e-01   1.6095728e-05
  1.9304970e-01   4.0385530e-05
 -2.0429422e-03   4.3896620e-05
  1.4341928e+00   1.6177832e-05
 -7.3588705e-01   9.3197950e-06
  1.6858899e-05   4.5397523e-05
 -6.1887949e-05   2.1636954e-05
 -2.4185273e-01   2.1700640e-04
  8.1892908e-02   1.4237272e-04
 -4.4800761e-01   2.7093870e-04
  7.8161664e-02   1.6620352e-05
  3.8660508e-01   8.3916311e-06
  1.5257669e-04   1.9657615e-05
 -2.8622567e-03   5.5252582e-05
  7.6896593e-02   1.1221909e-04
 -4.7865087e-01   2.2161907e-05
 -1.1313292e-01   2.3995253e-05
 -4.1398117e-01   3.7703532e-05
 -7.3262017e-05   3.7951653e-05
  5.4237992e-02   4.1902378e-05
  3.8501050e-04   3.4036300e-05
  1.8849364e-01   1.0172403e-04
  2.8232753e-05   1.2480895e-05
  2.1525308e-05   2.2348097e-05
 -4.9336320e-01   5.0418090e-05
  1.3802774e-01   9.7583334e-06
  4.2086074e-04   3.3367527e-05
  7.5313292e-05   6.3705593e-05
 -4.0368894e-05   2.2213997e-05
  4.9541566e-05   3.5011002e-05
 -1.8665545e-01   6.3997581e-06
  4.3859631e-02   1.2444190e-05
 -4.3722561e-01   2.5066905e-05
 -9.2196000e-01   1.9386554e-05
 -1.7095816e-01   1.1038522e-05
 -1.5095915e-01   7.9971354e-04
 -1.1648855e+00   3.3134744e-05
  3.1115409e-02   1.5702337e-04
  5.0467926e-01   1.9235727e-04
 -1.3816370e-04   5.9710925e-05
  3.5175264e-01   1.4582769e-05
 -5.6039816e-01   3.4823297e-05
  2.7332462e-05   2.0702530e-05
  2.9630584e-04   1.0733154e-05
 -5.1039198e-05   2.2306027e-05
 -5.2123076e-01   6.1515631e-05
 -2.9606029e-01   4.2581367e-05
 -2.9198119e-01   1.6994922e-05
 -1.2764512e-04   3.1865227e-05
 -3.6958739e-01   1.3685362e-05
  2.7532232e-01   1.2501952e-04
 -3.8381478e-01   5.5796729e-05
 -6.7623332e-04   1.0168226e-04
  5.3996497e-05   2.9124802e-05
  4.1477926e-02   2.0468097e-04
  2.4819677e-04   1.6097238e-05
 -4.4283816e-01   5.7476504e-05
 -5.5052731e-02   6.6592993e-04
  1.2327809e-04   2.0602827e-05
 -7.2147988e-05   4.6673154e-05
  1.4509157e-04   5.0332524e-06
  3.0282070e-05   1.5713815e-05
  3.6517034e-05   1.3276965e-05
  1.3463706e-04   2.9052635e-05
  3.1624211e-05   1.1527399e-05
 -3.8205613e-05   3.6034802e-05
 -8.8537156e-05   1.4123144e-05
  2.4809423e-04   2.1302281e-05
 -5.3364060e-05   5.8565329e-05
 -7.8633791e-05   9.4806828e-06
 -5.4997054e-05   2.9244486e-05
 -8.1544888e-05   6.0807266e-05
 -2.3350357e-04   2.8172333e-05
  2.4897994e-05   1.1235822e-05
 -3.2383073e-04   1.1874519e-05
 -1.3594458e-05   1.3365178e-05
  7.0688489e-05   1.6017808e-05
 -6.1206971e-05   2.2719896e-05
  2.4288126e-04   2.4363166e-05
 -1.9697774e-04   1.5857051e-05
  4.8673810e-06   4.5992823e-05
 -3.8823622e-05   1.3695051e-05
  4.4804729e-05   1.9457291e-05
 -2.7242387e-04   3.6396861e-05
 -4.4042190e-05   1.4421567e-05
  3.4304430e-05   3.6952260e-05
 -4.2782667e-05   2.3761137e-05
  5.4178632e-05   2.9359991e-05
  1.6837474e-04   3.1320920e-05
  1.2712158e-05   3.9992006e-05
  1.2468030e-04   1.4104091e-05
  1.4982843e-04   3.6870981e-05
  1.9730162e-05   2.5311738e-05
  1.6001018e-04   2.3774612e-05
 -9.4354029e-05   4.2007614e-05
 -1.0787658e-05   2.8432532e-05
 -2.4410798e-05   3.0204112e-05
  3.1433698e-05   2.1002488e-05
 -1.9503052e-04   9.1931779e-06
 -2.8911611e-04   2.4360481e-05
  1.2198637e-05   4.2996067e-05
  7.7062890e-05   2.4146793e-05
 -1.0663012e-04   7.7139784e-06
 -4.2862110e-05   9.3220788e-06
  2.4113757e-05   1.9351321e-05
  2.6369622e-04   3.1206226e-05
 -9.7140306e-05   3.7710774e-06
  2.8256331e-05   3.1380245e-05
 -1.2511999e-04   2.4862091e-05
 -2.1459758e-05   1.6741222e-05
  7.2673851e-05   3.9273022e-05
  4.9621762e-05   3.7493955e-05
  5.2558345e-05   3.3683402e-05
 -3.3997705e-05   4.4891072e-05
  3.7831065e-05   5.0869444e-06
  2.6186073e-05   3.9149319e-05
 -2.1040290e-05   2.3745381e-05
 -3.6837129e-05   2.1511849e-05
  4.0476283e-05   4.6535617e-05
  2.2173936e-05   1.0862233e-05
 -6.6157532e-01   8.8443267e-06
 -8.1108183e-01   1.1427081e-05
  1.2761328e+00   3.0959713e-05
  1.0925744e+00   1.2526454e-05
  1.3192980e+00   1.8529422e-06
 -3.4489560e-05   3.1011456e-05
 -1.4630954e-04   1.6195512e-05
  2.3216304e-01   3.0048172e-05
 -6.7260349e-01   3.8483518e-05
  5.7686359e-01   4.5308773e-04
 -1.5090704e+00   1.3823088e-05
 -8.0248207e-01   1.1894143e-05
 -8.9927220e-01   1.1594527e-05
 -6.4780253e-01   3.8325616e-05
 -3.0647218e-01   9.0612211e-06
 -6.2392437e-01   1.2274224e-05
 -5.5008101e-01   2.2332784e-05
 -1.5535659e+00   1.1074650e-05
 -1.4044272e+00   2.5650170e-05
  1.2832310e+00   1.4548235e-05
 -2.5650808e-01   6.5185668e-05
 -5.8700007e-01   8.9049674e-05
 -1.4796510e-01   2.3386585e-05
 -4.4153222e-01   1.0626431e-04
 -1.8379762e-04   6.2088460e-05
  7.6061551e-04   5.0487248e-05
 -2.8157744e-01   8.7457935e-05
 -3.4402815e-01   1.2411085e-04
 -4.7579375e-05   1.5804249e-05
  1.9821411e-05   3.3119581e-05
  5.6506443e-01   2.2212052e-06
  3.7839371e-01   6.2147860e-06
 -2.3573726e-01   2.8149540e-05
  7.3433405e-01   2.6371741e-05
  2.2000159e-01   3.8153489e-06
  1.1548893e+00   3.6780293e-05
  5.6671715e-01   2.2546501e-05
  9.0100322e-05   5.0779490e-05
  6.3000196e-01   9.1467300e-06
 -2.7213262e-03   6.8219095e-05
 -8.8185298e-01   3.0174908e-05
 -3.0546790e-01   7.0035717e-06
 -1.9860835e-01   1.1967954e-05
  9.1843003e-01   6.0331287e-05
  1.2984064e+00   6.7992718e-05
 -1.2189101e-01   2.0272864e-05
 -6.8994814e-01   3.8234411e-05
 -2.0838502e-01   2.8834504e-05
  5.5607921e-01   7.0582228e-06
  9.4455130e-02   1.8864524e-05
  2.6760011e-03   3.1105112e-05
 -6.4029377e-03   2.8128703e-05
  1.1507641e-04   1.6291988e-05
  5.3377396e-01   9.7544173e-05
 -4.9411559e-01   8.9533802e-05
  1.3801783e-01   3.8796294e-05
 -7.0873535e-01   3.1611300e-05
 -7.2264686e-02   9.2456692e-05
  1.1723575e-02   5.6273526e-05
 -4.1189313e-01   6.4324726e-05
 -1.0141252e-01   1.1679739e-05
  1.3664643e-01   1.2546292e-05
 -7.1350175e-01   4.1566465e-05
 -9.7243065e-01   3.2770483e-06
 -1.4517440e+00   1.3253052e-05
 -1.1564484e+00   7.4721458e-05
  4.2175059e-04   1.3765454e-05
  1.4621212e-01   6.0493614e-05
  5.1179576e-01   4.8090111e-05
 -1.0326092e+00   3.9378574e-04
  4.9859619e-01   7.0062997e-06
  4.2265981e-01   8.2819002e-05
  3.3415481e-01   1.0746237e-04
  1.1078097e-02   6.6775327e-05
 -4.1494364e-01   1.3502651e-04
 -4.3168035e-04   1.3198230e-05
  5.6358910e-01   4.1223091e-05
  1.1422892e-01   1.3736833e-04
  2.0515495e-04   7.4479838e-05
 -6.4397929e-03   3.8100203e-05
  2.2415818e-01   9.9773206e-05
  1.6753356e-05   5.7089444e-05
  5.1287359e-01   2.0472887e-04
  4.9250410e-04   3.9920498e-05
 -2.5175261e-05   3.9816689e-05
 -1.7255977e-01   3.3176264e-05
  3.3246528e-02   6.4922751e-05
 -6.6397584e-04   9.2571445e-06
 -4.5952309e-02   3.2525923e-04
  6.3962743e-02   2.4249994e-04
  8.0914330e-03   1.4073003e-05
 -1.8239104e-03   2.1031829e-06
 -1.2347398e-03   5.9920603e-06
  1.7407445e-02   1.4641108e-05
  5.0361129e-04   1.0130860e-05
 -4.8926182e-02   5.7261135e-05
 -1.8838820e-01   4.5569799e-05
  7.7414169e-04   7.4569391e-05
 -1.0541151e-02   1.5330574e-05
  3.0033450e-05   3.8973682e-05
  1.6534761e-02   9.8683468e-06
 -4.8004687e-02   5.2622338e-05
 -6.3785315e-05   4.2085080e-06
 -7.3565595e-04   1.2259344e-05
 -2.5148347e-02   3.6326550e-05
 -1.4308509e-05   1.0724357e-05
 -1.2355938e-03   1.9348288e-05
 -9.2606310e-04   1.7860953e-05
 -1.7215295e-02   3.2731445e-05
  3.6409495e-03   1.1248997e-05
 -5.2683608e-04   1.9988936e-05
 -5.1868651e-02   1.6340271e-05
 -1.4646932e-02   8.9074529e-05
 -5.0967294e-03   3.8113754e-05
  1.0975116e-02   6.8209578e-05
  1.3601742e-03   1.2364478e-05
  7.1009622e-06   2.3135204e-05
 -1.3503470e-04   3.0050567e-05
 -1.4802537e-02   8.3900792e-05
  7.5259835e-02   1.2822013e-04
  6.6730970e-01   1.7261980e-05
  4.6188873e-01   2.1315709e-05
 -1.4105149e-06   3.2394096e-06
  3.3823314e-01   3.4005818e-05
  4.2984346e-01   3.7418053e-05
 -4.8866034e-01   2.1086015e-04
 -1.9575047e-05   3.0720250e-05
  2.0412165e-01   9.3250332e-05
  1.2012027e-05   2.3255820e-05
 -2.6121429e-01   2.6575383e-04
  6.5648007e-01   3.3865119e-05
  1.7768620e-01   3.9725477e-05
  3.8100880e-01   6.3140797e-05
 -1.5584029e-02   8.8203728e-05
 -6.7627216e-03   3.6037211e-05
 -1.9089478e-03   6.1285784e-05
  2.1465849e-04   2.5357929e-05
 -1.4608160e-02   4.5078697e-05
 -1.4031368e-01   4.6413046e-05
 -1.5032600e-05   2.7292086e-05
  2.0001236e-02   1.8355648e-05
  3.1693209e-02   2.0200525e-05
  2.7012132e-02   1.5656925e-04
 -7.4315615e-02   1.0157175e-04
  1.4922465e-04   1.9836283e-05
  1.1065928e-04   2.6721629e-05
  5.4914565e-03   1.7542685e-05
  6.5187880e-05   2.0241605e-05
 -6.4533924e-05   3.4883720e-05
  1.7408702e-04   6.3239568e-05
 -1.5661597e-02   5.6751314e-06
  8.0814731e-01   7.9056126e-06
  6.4818567e-01   1.5546746e-05
  4.3027565e-01   7.2654830e-06
  7.4979740e-01   1.2037380e-05
  6.2649310e-02   2.1207138e-04
 -8.4110177e-01   2.1520164e-05
  2.1174864e-01   2.1255171e-04
 -1.2920504e+00   9.5690091e-05
  1.2174579e+00   6.8242400e-05
 -2.0253232e-01   2.3431914e-05
 -3.2794869e-01   1.9558933e-05
 -4.5890653e-01   1.5854273e-05
  1.0488421e-03   3.4513050e-05
 -9.7503833e-02   5.5014621e-05
  2.9462695e-01   7.0806550e-06
 -1.7563767e+00   3.0896561e-05
 -2.1551008e+00   3.8176557e-05
  6.8344086e-01   1.7232485e-05
  9.2746305e-01   2.0604766e-05
 -2.2820526e-01   4.3498429e-05
 -1.0725586e+00   5.0330131e-05
 -8.4443122e-01   7.4357449e-05
 -1.0756661e-01   2.4667292e-05
  2.6265091e-01   9.6567353e-05
  9.2035691e-05   1.2855314e-05
 -4.6343324e-01   3.5821078e-05
 -4.1158164e-01   7.2518102e-05
  7.2307705e-07   1.7089016e-05
 -3.5385496e-05   8.8792749e-06
 -1.5663380e-04   2.6278485e-05
 -2.1881786e-04   3.0497657e-05
 -4.9259314e-05   4.2672218e-05
 -9.5826463e-06   4.1889845e-05
 -1.3882546e-04   2.9095589e-05
 -7.8371122e-05   1.6973487e-05
  1.0156714e-04   1.7492979e-05
 -1.7254672e-04   6.6497909e-05
 -1.2576139e-04   2.7093613e-05
  3.2771321e-05   5.3497824e-05
  4.0215138e-05   1.8861005e-05
  3.5565186e-05   4.2476000e-05
 -2.9750390e-05   2.1600954e-05
 -6.4953339e-05   3.7474194e-05
 -2.6390855e-05   5.3383210e-05
 -1.5537848e-04   3.7651480e-05
 -1.4910293e-05   2.4544419e-05
  3.2728316e-05   2.4568577e-05
 -1.6507013e-04   5.2946598e-05
 -4.8486413e-06   2.4519291e-05
 -2.4494552e-04   3.4045279e-05
  2.2889668e-05   1.6247031e-05
  4.8576694e-05   3.0547817e-05
 -1.5363762e-04   8.9564974e-06
  1.4804813e-04   4.3450753e-05
  9.0104681e-05   4.6545603e-05
  3.0366096e-05   4.0893021e-05
 -7.1798444e-05   3.5960511e-05
 -7.2252478e-05   3.0063813e-05
 -7.5720047e-04   2.3208144e-05
 -9.5943086e-02   2.1309372e-05
  1.7050634e-01   1.0380807e-04
  2.9168078e-01   1.3014102e-05
 -6.3554905e-02   6.0475737e-05
  2.5650480e-01   2.2878441e-05
  2.2155730e-01   7.2589555e-06
  1.5433475e-01   2.8106789e-04
 -1.9935239e-04   3.3195818e-05
 -6.4408131e-02   3.8825328e-05
 -4.6940736e-04   2.8763179e-05
 -5.8154047e-01   4.9471015e-05
 -4.9039416e-05   3.7053247e-05
  4.9936083e-05   1.2775570e-05
 -6.5842389e-05   2.9289078e-05
  1.8680281e-05   5.9239948e-05
 -1.8001281e-01   2.2337690e-05
 -7.8670615e-03   6.6370967e-06
  2.5773821e-05   4.7251066e-05
 -3.1037591e-05   3.1869633e-05
 -7.9163713e-03   8.2213455e-06
 -1.5297729e-04   1.7765578e-05
  1.1593471e-01   1.2213152e-04
  9.7623284e-05   3.9823964e-05
  3.2018361e-06   4.2762982e-05
 -4.7613145e-04   9.6260126e-05
 -8.4730066e-02   4.1671685e-04
  3.5158346e-06   9.9773979e-06
  7.3326388e-05   1.3532154e-05
  2.3028335e-05   5.6682646e-05
  2.6665877e-05   3.3937260e-05
 -5.9660423e-01   1.3952194e-05
 -5.8640158e-01   1.4313028e-05
 -4.1123158e-01   1.3988186e-05
  1.3729492e+00   7.8479507e-06
 -1.0900059e+00   3.0466745e-05
 -9.8945223e-02   1.5433657e-04
 -1.6596093e-03   5.7092850e-05
  5.4598892e-01   2.2200971e-04
  4.3144882e-01   1.4379323e-05
 -2.5023564e-04   4.6813751e-05
  8.4270192e-03   1.2441988e-05
 -1.3796957e-01   1.3300465e-05
  2.1617256e-01   4.3211676e-05
  2.9459718e-01   1.0638378e-04
 -5.9796721e-01   8.2309103e-05
 -1.5007501e-02   2.3016502e-05
 -1.3923594e-03   4.6972567e-05
 -1.5154398e-03   3.6892274e-05
  3.3102347e-06   2.1690110e-05
 -2.1024223e-02   2.2182510e-05
  7.4384026e-02   9.3182891e-05
 -1.5493639e-01   4.0425355e-05
  1.8742696e-05   2.1168311e-05
  1.9654724e-06   3.4798792e-05
  2.2736452e-04   3.0605861e-05
  1.7666143e-03   8.7554654e-05
 -5.3979624e-05   4.3792774e-05
  5.3356090e-03   1.3370122e-04
 -3.8952363e-04   6.3757863e-05
  4.2470190e-05   1.4679479e-05
 -7.7048457e-01   3.8487844e-05
 -1.5248812e+00   3.6269837e-05
  1.0259870e+00   5.1492414e-05
  6.5539235e-01   1.6807196e-06
  1.5215345e-01   5.9880481e-06
  2.9376832e-01   2.9437468e-04
  8.2290484e-05   4.6835416e-05
 -6.7780249e-02   1.7827409e-04
  3.8482016e-04   4.0296549e-05
  5.9302562e-01   1.9518167e-04
 -2.5744395e+00   4.1774958e-05
 -6.4254838e-01   1.1825407e-05
 -2.3041697e-01   5.9725040e-05
  1.6459988e-01   8.3119616e-05
  4.1121531e-01   3.1309803e-05
  6.4801890e-01   2.0220332e-05
  2.2643062e-01   8.4137908e-05
  9.6236002e-01   1.3851284e-04
  3.5551766e-05   5.5434422e-05
 -4.7775021e-01   3.5467663e-05
  1.0248349e-01   1.2323898e-04
  4.9654526e-01   1.9453654e-04
 -1.8887207e-04   1.3731248e-05
  1.2849516e-01   2.7860125e-04
  4.4684631e-01   1.7614644e-04
 -3.9544928e-05   1.6259271e-05
 -2.6079342e-03   2.9810192e-04
 -1.9209757e-01   1.2772424e-04
  2.3042812e-05   4.8501730e-05
 -1.1445173e-04   2.7374661e-05
  8.0759746e-05   2.1680265e-05
 -1.4819247e-04   9.9755352e-06
  1.9100196e-05   1.1349420e-05
 -9.6468884e-06   1.3575228e-05
  1.4485189e-04   1.7492732e-05
 -1.0681024e-04   2.7344573e-05
  7.2634481e-05   3.5725945e-05
  9.1890661e-07   1.5198822e-05
  4.9748149e-05   2.0581730e-05
  1.2599115e-04   6.4961234e-05
 -3.5669451e-05   2.7715392e-05
 -6.4457869e-05   3.1369804e-05
  4.8729955e-05   1.3068091e-05
 -1.6113631e-04   5.1119943e-05
 -6.9994421e-05   1.5223216e-05
  1.6634292e-05   9.0500389e-06
  1.2299926e-04   3.7160138e-05
 -5.0227400e-06   3.2782093e-05
 -1.6607682e-05   1.5936810e-05
  1.3295014e-04   2.7141043e-05
 -9.0188723e-06   3.6370140e-05
 -2.9260502e-04   2.4216382e-05
 -1.1069439e-04   2.4838739e-05
 -4.6610145e-05   5.1780782e-05
  3.9134222e-05   1.1439253e-05
 -2.6134503e-05   2.7350199e-05
  6.3773077e-05   3.1076561e-05
 -3.2827197e-04   2.3620441e-05
  1.5540747e-05   9.7292141e-06
  4.1528496e-05   3.4795095e-05
  5.7158958e-02   1.2698823e-05
 -1.5897878e-02   1.2632212e-05
  1.0759450e-04   8.0755148e-05
 -1.4638079e-02   1.8912961e-05
 -1.7843090e-02   1.3795331e-05
  2.3726541e-04   1.6474865e-05
  1.1279793e-01   1.0380121e-04
 -3.3386576e-04   4.3400545e-05
  2.8195898e-03   2.0273104e-05
 -3.5998554e-04   1.8259871e-05
 -6.5512739e-02   1.5878872e-05
  2.9297946e-02   2.3311928e-05
  7.2259904e-04   5.0976130e-05
 -5.1223999e-04   2.7998336e-05
  4.0339265e-02   4.7655303e-05
 -2.8906470e-02   5.2691853e-06
  2.1198920e-04   2.8665912e-05
 -5.5578766e-06   2.1905606e-05
  2.6023790e-04   2.9077619e-05
 -3.4360948e-03   7.1962982e-06
  8.4055100e-05   2.2423896e-05
  5.7287358e-02   1.3161804e-04
  7.2556437e-04   4.8095884e-05
  8.7772391e-04   7.5240227e-06
 -2.0405005e-04   6.9196009e-05
 -3.1633463e-03   1.6071057e-04
 -1.2551842e-04   3.2125809e-05
  3.7731617e-05   4.0944597e-05
  6.7315582e-04   2.4580571e-05
 -1.1050136e-04   3.9782099e-05
 -3.1606475e-01   3.8624097e-05
  7.4983823e-01   7.0514056e-05
  6.1885279e-04   3.6323851e-05
 -5.2574242e-04   3.3983768e-05
 -8.0884978e-02   6.0024551e-05
  1.1704111e-04   1.8550307e-05
  5.3772342e-04   3.9112037e-05
 -1.0197504e-04   4.3206724e-06
 -5.8693304e-06   2.9400600e-05
 -5.6224872e-06   5.1383464e-05
 -4.6155966e-04   1.6936205e-05
 -2.8422264e-06   1.3229645e-05
  3.1206258e-05   4.8671001e-05
 -1.1035416e-05   3.2662159e-05
  1.2627039e-04   3.4293833e-05
  2.0321202e-01   6.7983980e-05
 -3.7798443e-05   3.5964542e-05
  1.9433499e-04   3.5537909e-05
  3.5194356e-05   5.9074926e-05
 -1.1111798e-04   2.3329367e-05
  6.4963766e-05   2.9585310e-05
  3.1561856e-04   2.1103120e-05
  1.7022996e-05   1.4623321e-05
 -4.6586454e-05   4.4610202e-05
 -1.8603330e-05   2.1791126e-05
  2.4107843e-05   5.4688466e-05
 -5.8233338e-05   1.8363113e-05
 -7.0441129e-05   5.1532243e-06
 -5.4817297e-05   1.6955863e-05
 -1.0722852e-04   8.9458044e-06
 -2.0781067e-01   1.0222962e-05
 -1.0072119e+00   1.2675106e-05
  3.5953510e-01   5.6030047e-05
  1.1218895e-01   3.5260757e-05
  3.8026592e-01   1.8163149e-05
  5.3249073e-01   2.8806381e-04
  8.5146829e-02   6.1662642e-05
 -2.9719391e-04   2.0717591e-05
 -7.2467245e-02   1.1384176e-05
 -2.4475561e-02   1.2726910e-04
 -2.4209318e+00   2.0520481e-05
  1.3606274e+00   9.7872959e-05
  4.6580207e-01   3.7028440e-05
 -2.8536735e-02   3.5718032e-05
  9.4687277e-01   2.0401189e-05
 -2.6819184e-01   2.7653259e-05
  5.2237743e-01   1.0761744e-04
  7.7709099e-03   7.1719238e-05
  4.8901924e-01   8.6016145e-05
  6.1665356e-01   3.9083174e-05
 -1.0788142e-04   5.5010929e-05
  1.7629117e-04   1.6897882e-05
  6.2251183e-06   1.8698362e-05
  3.2380849e-01   2.8470179e-04
 -4.9821076e-01   3.1277360e-04
 -1.7907098e-03   3.8642251e-05
 -3.0214430e-03   2.0256291e-04
 -2.8374570e-06   2.1817066e-05
 -1.1523297e-04   1.8786715e-05
 -1.2343173e-05   4.3373624e-05
 -6.2825716e-01   1.9258632e-05
  5.6487185e-01   1.0501972e-05
  1.3930757e+00   1.6309987e-05
 -1.9962838e-01   5.7848670e-06
  1.0616920e-01   8.0485352e-06
  8.5348569e-05   2.7059847e-05
  4.0410307e-01   2.5981150e-04
  1.7287432e-04   3.1152573e-05
  2.6187870e-01   1.5193162e-05
 -2.1437655e-01   2.0906120e-04
 -2.0719051e-01   5.0102764e-05
  9.1269690e-01   1.5925274e-05
 -3.4237120e-01   2.4688419e-05
 -1.5373676e-05   2.5377667e-05
  7.0133346e-01   2.4896481e-05
 -2.1054468e+00   1.3365601e-05
  4.3405226e-01   2.4235420e-05
  5.3473067e-01   7.1737982e-06
  5.8920169e-01   3.1506755e-05
  1.6758834e-01   3.0823572e-05
  2.2879955e-01   1.1411827e-05
  3.7265618e-03   9.5645963e-05
  5.8998889e-01   1.5891393e-04
  5.8438849e-02   2.3377883e-04
 -1.0188006e+00   2.7702930e-05
 -3.5144467e-04   7.7753612e-05
 -1.4512578e-04   1.0375586e-05
 -7.1603652e-05   4.0817831e-05
 -6.6218345e-05   2.4417770e-05
 -5.5126708e-05   2.8710960e-05
  3.1528769e-05   4.3990676e-05
 -4.0595412e-05   5.5771714e-05
  3.1852038e-04   2.8060396e-05
 -4.2294396e-05   2.4744015e-05
 -1.1439680e-04   7.1407972e-05
 -4.6019166e-05   1.9059637e-05
 -8.5224958e-05   3.0835421e-05
  1.0473256e-04   2.2967159e-05
  1.1639954e-04   1.3288572e-05
  5.9115042e-05   1.6173706e-05
 -9.6213575e-05   2.1455104e-05
 -1.4118550e-05   2.1922531e-05
 -3.9158509e-05   3.2346001e-05
  3.1048438e-04   7.3640542e-05
 -4.1949261e-07   6.6130719e-06
  1.6666880e-04   1.9567189e-05
 -4.1894509e-05   9.4954439e-06
 -1.4095670e-04   2.8550938e-05
 -5.1288484e-05   7.3157889e-06
 -1.1324506e-04   3.3984386e-05
 -1.5458457e-04   7.0074653e-05
 -9.9277786e-05   9.8246364e-06
  2.1448397e-04   1.0022694e-05
  2.7641645e-04   1.2059670e-05
  3.0799223e-05   1.4786465e-05
  1.9678950e-05   3.7264940e-06
 -4.8668451e-05   3.4846857e-05
 -8.3434083e-05   5.7237553e-06
  2.2577218e-04   2.6499418e-05
  1.7105375e-04   3.3822205e-05
  1.4419379e+00   3.4357305e-05
 -1.7795252e+00   3.1343872e-05
  3.5411112e-02   3.6234993e-05
  1.4467136e+00   2.2980053e-05
  1.3417408e+00   3.9208731e-05
  6.0440791e-05   1.3980827e-05
 -3.2929873e-01   1.1475588e-04
  2.3169196e-04   3.9472779e-05
  1.0044062e+00   3.1264623e-05
  1.0454572e-05   3.5914640e-05
  2.6804981e-01   4.4601340e-05
 -1.9691269e-01   5.6618443e-05
  1.0104728e+00   5.0381179e-05
  7.3567700e-01   1.5021669e-04
 -1.1865017e-04   4.5043816e-05
  1.3103598e+00   9.2610017e-06
 -1.0096864e+00   1.2071355e-04
 -2.7076888e-01   5.2029231e-05
  7.5681573e-01   9.8611548e-05
 -2.7667543e-01   2.1887823e-05
  1.9076876e-01   1.3381860e-04
 -1.3829716e+00   2.5325219e-04
 -1.4150110e-01   1.1082342e-04
  5.4199755e-01   1.6164061e-04
  2.5214052e-01   1.5148251e-04
  8.2953729e-02   9.3176532e-05
 -4.8955306e-05   7.1627919e-06
 -1.0614585e-06   3.0110565e-05
 -3.9354889e-04   2.8524135e-05
 -1.1644937e-04   3.1454161e-05
  9.2978947e-02   1.6750713e-05
  1.8838316e-04   3.1190924e-05
 -5.1182251e-05   2.3209792e-05
 -1.3954451e-04   2.0743601e-05
 -9.1249287e-02   1.2062761e-04
 -2.6439991e-05   2.6028705e-05
  1.2747529e-04   3.2939846e-05
  1.0818050e-04   3.0337851e-05
  2.6253689e-04   5.4339995e-05
 -1.2346635e-04   3.1573356e-05
 -2.5127320e-05   1.1778992e-05
  1.8368789e-04   3.6093930e-05
  4.5623572e-05   1.3928438e-05
  2.2462727e-05   8.9931491e-06
  1.4370910e-04   5.7058614e-06
 -3.9148974e-05   2.2681794e-05
 -3.7941065e-06   3.3234519e-05
  1.3143565e-05   1.5667540e-05
 -3.4896962e-05   3.6111385e-05
  1.0392303e-04   4.7550755e-05
  2.0484012e-04   2.0791240e-05
  8.2517494e-05   4.1462165e-05
  6.9259295e-05   1.7336397e-05
 -1.0180147e-04   3.4098346e-05
  1.5253163e-04   3.3165266e-05
 -1.9275165e-05   3.9200051e-05
  1.0606211e-04   3.7737133e-05
 -9.6590898e-05   1.6011312e-05
  8.5385029e-05   2.2879196e-05
  3.4889614e-05   2.0580652e-05
 -3.0142426e-01   2.0013293e-05
  1.6549847e-01   7.7765115e-05
  1.0675958e-01   4.6531623e-05
 -1.4995401e-05   3.1738520e-05
 -3.2365802e-01   1.0287284e-04
 -7.8628989e-05   1.4610891e-05
  1.2594833e-04   4.8013990e-06
  6.2277177e-05   5.2894025e-05
  7.1506773e-05   8.3083860e-06
 -1.9237592e-05   2.3518585e-05
  2.1452531e-04   1.0787044e-05
  6.5260523e-05   1.3129135e-05
  6.8623369e-05   2.4197499e-05
  2.8374392e-04   6.3667121e-06
  2.7610690e-04   4.5958132e-05
  3.1214487e-04   3.0927444e-05
 -7.0680457e-05   2.1653605e-05
 -3.8408285e-05   9.0998783e-06
  1.1148652e-04   3.5304358e-05
 -3.7175509e-05   2.4986733e-05
  1.7174438e-05   5.2795640e-06
  3.0447057e-04   3.3569493e-05
  3.2605961e-04   3.1611995e-05
  6.4900081e-04   2.0214520e-05
  2.7755910e-04   7.9980258e-05
  1.6038211e-04   1.6382082e-05
  1.1403328e-04   1.7905466e-05
 -7.6476543e-05   5.4091022e-05
  7.2438444e-05   4.2831212e-05
 -1.2933915e-05   1.2527972e-05
  1.0117807e-04   2.9412855e-05
 -9.8377997e-05   2.6706650e-05
  1.5563230e-04   3.6355737e-05
  2.1770404e-05   3.4238041e-05
  8.6007407e-05   9.5327150e-06
  2.3883236e-04   2.3980900e-05
  3.3035081e-05   5.9215490e-05
  6.1077066e-05   3.6531073e-05
  1.1549266e-04   3.0419285e-05
 -1.7452500e-04   4.3246935e-05
  3.2813678e-05   2.1350352e-05
  8.0141472e-05   3.1318203e-05
 -1.8410801e-04   2.2453789e-05
 -1.1142535e-04   2.7258629e-05
 -8.2799685e-05   2.4617895e-05
 -1.1882210e-04   3.3151009e-05
 -5.4142554e-05   2.0449241e-05
 -3.1532581e-05   3.8262624e-05
  5.8043719e-05   1.4621442e-05
  2.5414209e-05   4.8425758e-05
  1.6437225e-04   4.2063723e-05
  3.0767362e-04   2.4610813e-06
 -3.0089310e-05   1.0446137e-05
 -2.1629524e-04   3.9506143e-05
 -2.5300804e-04   1.4330029e-05
 -1.0120456e-05   2.1032731e-05
  4.6025179e-05   3.9290542e-05
  6.7875604e-05   2.6561205e-05
  1.7843122e-04   6.6376733e-06
 -2.3773056e-05   4.0920797e-05
  2.8366801e-01   2.0912725e-05
  1.1593890e-01   4.6399909e-05
  3.8355866e-01   1.4742239e-05
 -2.5078139e-01   2.7039845e-05
  2.4785495e-01   1.7756342e-05
 -1.4603329e-04   1.5223191e-05
 -7.6056021e-01   1.0503563e-04
  6.2599435e-02   2.1533716e-04
  3.1487318e-05   2.7941538e-05
  2.0853049e-04   4.3983950e-05
  4.1684544e-01   6.1469524e-05
 -6.2847173e-01   5.1939391e-05
 -7.8325265e-06   4.2476928e-05
 -6.5349232e-05   1.0587738e-05
  8.0599566e-05   1.7537928e-05
 -1.6027081e-01   6.7524539e-05
 -1.5339296e+00   9.4940762e-05
  4.8167174e-05   3.4199900e-05
  1.3726063e-04   4.4935565e-05
 -7.0925139e-02   1.5988751e-05
 -3.9359994e-04   4.3372354e-05
 -3.1257105e-01   1.2554179e-04
 -2.8492879e-02   1.3775383e-04
  4.4870856e-05   6.4272676e-06
  2.3496762e-01   1.0502755e-04
  1.3951720e-04   6.2927415e-05
 -1.6165654e-01   4.2398481e-04
 -2.1590984e-04   2.9331672e-05
 -2.4779591e-05   1.6037269e-05
 -3.8694558e-05   1.3283945e-05
 -1.6900765e-04   5.2772964e-05
  6.6920529e-06   1.1019020e-05
  2.4582312e-04   6.6522398e-06
 -4.4437176e-05   6.1162114e-05
 -4.4483055e-05   1.0135897e-05
 -1.1921098e-05   5.1299769e-05
  2.9401766e-04   2.6407542e-05
  1.2302351e-04   3.5205427e-05
  2.8629511e-04   2.0091966e-05
 -1.9860732e-05   2.5703266e-05
 -2.2453628e-04   5.5548015e-05
 -3.1866664e-05   1.9586734e-05
 -2.4712615e-04   2.8657045e-05
 -1.6018223e-04   5.2002117e-05
 -7.6664277e-05   3.2535234e-05
 -1.9098174e-04   2.6464393e-05
  9.9521400e-05   2.7895678e-05
 -3.6598285e-05   1.5729254e-05
  2.2845046e-04   9.3657800e-06
 -2.4744516e-04   5.4429973e-05
  8.1260296e-05   1.5484524e-05
 -6.8757014e-05   2.4297764e-05
  8.4488522e-05   2.2853439e-05
  6.0081838e-06   1.1012754e-05
  5.8635585e-05   1.9189853e-05
 -2.7069489e-05   3.4597902e-05
  8.2052189e-05   3.7788654e-05
  2.3277984e-05   3.7249527e-05
 -1.2807817e-04   4.5862344e-05
  1.4930770e-04   2.7257523e-05
 -4.6007821e-01   9.6344978e-05
  1.5491878e-03   8.5118852e-05
 -3.6739865e-01   1.6016599e-04
 -1.2592927e-01   2.5691226e-05
  3.3815283e-02   2.0539375e-05
 -1.3711868e-04   7.5940825e-06
 -2.0213518e-04   2.4880008e-05
  1.9105566e-05   1.7608882e-05
 -2.4478290e-05   3.2096174e-05
 -4.4636650e-04   1.8376473e-05
 -1.1175114e-03   1.0728217e-05
 -1.9491711e-04   1.4659075e-05
  8.7263381e-01   6.3465181e-05
 -6.4788554e-05   2.2034186e-05
 -1.2695229e-01   8.9663226e-05
 -7.8465439e-02   1.1582918e-05
 -1.9934766e-02   4.1878069e-05
 -9.9024929e-02   9.5898991e-05
 -5.7500492e-06   9.4956322e-06
  2.1400742e-01   3.4857199e-05
  2.2357095e-05   2.3588407e-05
 -1.7319810e-05   2.8328832e-05
 -7.7098768e-05   3.4081881e-05
  1.0557430e-04   3.1550866e-05
 -1.2313205e-04   1.9391906e-05
  1.1636267e-04   2.4053954e-05
  9.6059593e-06   2.4824900e-05
  3.6372556e-05   2.5125188e-05
  4.7567651e-06   2.9710684e-05
  1.8425874e-04   3.4419420e-06
  4.4591749e-01   9.5408041e-06
 -3.2625532e-01   2.1075401e-05
 -1.6586588e-01   1.9154295e-05
  9.7682148e-02   5.5623973e-06
  1.5747182e-02   1.6644859e-05
 -4.8191875e-01   1.4906139e-04
 -2.3914427e-01   1.3414028e-04
  5.7613629e-01   5.6764839e-05
  3.2117167e-01   7.8254736e-05
 -6.4874537e-02   8.9123881e-05
 -5.6922722e-01   4.4413777e-05
 -5.1717229e-02   2.5499410e-05
 -4.6348903e-01   3.2520093e-05
 -5.6823897e-05   3.6038422e-05
 -7.9540074e-02   7.4971445e-05
 -6.1697441e-01   2.4024792e-05
 -6.2424940e-01   7.9558849e-06
 -6.3644817e-05   3.7475285e-05
  3.4080946e-01   4.2741533e-05
 -1.7264361e-05   9.5883379e-06
  1.3976455e-03   9.9309837e-06
 -5.7901365e-01   2.5494728e-05
 -9.9611431e-03   1.4006485e-04
  8.2854643e-02   7.0566792e-05
  4.5032892e-05   4.8662070e-05
 -6.3554162e-01   7.6695782e-05
 -3.9207092e-01   1.4303584e-05
 -5.3039265e-01   1.3720529e-04
 -6.5437358e-05   5.9702546e-05
  4.1608661e-04   6.7673267e-05
 -1.4069401e-01   1.4104289e-05
 -2.4707681e-01   2.1139083e-05
  3.6970526e-01   4.2859425e-05
  6.6408724e-02   8.2003440e-05
 -8.0753133e-02   2.7987080e-05
  3.9804152e-05   6.8665518e-05
  1.3425921e-04   5.6161825e-05
  3.4619072e-05   1.8838686e-05
  5.8327464e-04   3.0358353e-05
  1.9402069e-05   4.7934405e-05
 -2.1765745e-04   1.9461522e-05
 -2.2125123e-05   4.7936439e-05
  3.4614361e-04   1.5046610e-04
 -5.1131396e-05   1.9993222e-05
  7.0723181e-05   8.6945540e-05
  5.0284296e-01   9.5763491e-05
  1.5636939e-04   3.1387062e-05
  1.6886822e-04   5.5586577e-05
  2.0276602e-06   4.7143236e-05
  3.1714695e-05   1.3761893e-05
 -9.3403622e-05   2.0156956e-05
  8.3916821e-05   5.1895124e-05
  4.0524443e-05   3.5584668e-05
  3.0041124e-06   2.4182771e-05
  5.2630180e-06   1.9908532e-05
 -3.9270867e-06   3.0604489e-05
 -8.7363653e-05   1.9841986e-05
  4.3634845e-05   1.8504530e-05
 -2.8228175e-04   2.0675621e-05
 -1.1761119e-04   1.0333541e-05
 -9.5452869e-01   1.4242913e-05
 -1.8911250e+00   1.7801838e-05
 -1.5399938e+00   2.8418432e-05
  1.0932729e-05   1.0208412e-05
 -1.1208752e-04   3.6712976e-05
 -2.3053665e+00   1.1585033e-05
  5.7192761e-01   1.1881117e-06
  6.3221626e-02   5.8376268e-06
  2.8706250e-01   2.1310992e-04
  1.0674958e+00   2.1291748e-06
 -1.8517947e+00   4.8831262e-06
  8.8144814e-05   3.8805720e-05
  3.4996128e-01   8.4806488e-06
 -1.0260464e+00   2.1840862e-05
 -1.0871959e+00   4.1849967e-06
 -2.5887231e-04   3.8571427e-05
 -3.1369215e-01   2.0874488e-04
 -2.5032797e-01   4.3475852e-04
  2.8831202e-01   4.6162248e-05
 -9.2439467e-01   7.0435476e-06
  6.7011257e-05   3.4146466e-05
 -4.0169933e-01   6.6375542e-06
 -2.4170060e-04   1.4229759e-05
 -5.1128220e-05   1.1236520e-05
 -1.7514313e-04   6.8693109e-05
 -8.5037029e-01   2.1328122e-05
  8.6242862e-06   3.4884488e-05
  1.1773306e+00   2.5047886e-05
 -9.5768708e-01   6.6115481e-06
 -1.4087176e-01   1.0715060e-04
 -8.2444578e-01   5.3187250e-06
  1.1274725e+00   2.0280320e-05
 -1.1178173e+00   2.4104362e-05
  1.3653288e-05   4.0627030e-05
  6.4460482e-07   2.2169144e-05
 -4.3799034e-01   1.4630981e-06
  1.0496868e+00   2.7080207e-05